version 2
run MM11_3_equal-0-20151213-21:13:52-30097
attr configname MM11_3_equal
attr datetime 20151213-21:13:52
attr experiment MM11_3_equal
attr inifile omnetpp.ini
attr iterationvars ""
attr iterationvars2 $repetition=0
attr measurement ""
attr network MM11_3
attr processid 30097
attr repetition 0
attr replication #0
attr resultdir results
attr runnumber 0
attr seedset 1

vector 0  MM11_3.queue1  queueLength:vector  ETV
attr interpolationmode  sample-hold
attr title  "queue length, vector"
vector 1  MM11_3.queue2  queueLength:vector  ETV
attr interpolationmode  sample-hold
attr title  "queue length, vector"
vector 2  MM11_3.queue3  queueLength:vector  ETV
attr interpolationmode  sample-hold
attr title  "queue length, vector"
vector 3  MM11_3.snk1  lifeTime:vector  ETV
attr interpolationmode  none
attr title  "lifetime of arrived jobs, vector"
attr unit  s
0	0	0	0
0	21	69.333511865631	1
0	25	71.716568390124	0
0	32	76.697353815154	1
0	48	90.444805058832	0
0	75	144.334390666056	1
0	84	156.381864743399	0
0	112	184.142883358537	1
0	119	198.669508923631	0
0	164	251.255296679414	1
0	175	257.015296993756	0
0	182	260.484290259369	1
0	191	264.639165523224	0
0	288	376.449199761367	1
0	308	398.657469754221	0
0	312	401.296384355885	1
0	327	422.575474592532	0
0	346	450.875139188441	1
0	353	455.71007432853	0
0	392	478.931407123583	1
0	433	509.456594498694	0
0	440	515.692985826513	1
0	460	521.938941316173	0
0	464	526.052446517296	1
0	475	540.700931570085	0
0	479	541.047380141744	1
0	485	558.360731741508	0
0	537	592.817892438809	1
0	541	593.910264047671	0
0	551	608.812116720699	1
0	554	610.245242779912	0
0	558	613.10911995143	1
0	576	636.122342870958	0
0	605	662.294176276594	1
0	614	673.151665449343	0
0	655	707.547879015048	1
0	672	717.33334670545	0
0	676	720.444211933378	1
0	683	725.938776719798	0
0	760	816.868208086889	1
0	761	819.027769800511	0
0	829	867.134557673759	1
0	832	870.039129745756	0
0	840	876.786147446919	1
0	852	889.691945295309	0
0	859	892.643070607179	1
0	866	898.105122970968	0
0	875	901.436943432303	1
0	904	938.743538423554	0
0	908	944.508068054687	1
0	933	962.782579193223	0
0	937	964.064330384392	1
0	966	981.865863396827	0
0	975	986.206273770615	1
0	978	992.277011295374	0
0	1011	1020.904843633755	1
0	1026	1040.076257832196	0
0	1058	1062.315352493661	1
0	1062	1069.618815886284	0
0	1217	1276.451218468626	1
0	1218	1284.126792805026	0
0	1222	1285.137855166723	1
0	1231	1293.975062705553	0
0	1235	1295.517376557931	1
0	1244	1302.744796312478	0
0	1259	1323.831427530097	1
0	1263	1327.00490983853	0
0	1387	1521.660478217054	1
0	1401	1546.020500293579	0
0	1464	1632.29442462315	1
0	1479	1642.698892274542	0
0	1506	1666.687020772883	1
0	1510	1670.567921123804	0
0	1546	1707.265976018881	1
0	1557	1727.869466139149	0
0	1597	1755.399210266418	1
0	1636	1806.401430493762	0
0	1673	1853.472178502152	1
0	1674	1854.726837159823	0
0	1747	1900.029676582162	1
0	1756	1910.080154376978	0
0	1813	1943.739231892596	1
0	1818	1949.449179365212	0
0	1822	1950.757572881903	1
0	1839	1970.771570451343	0
0	1894	2024.838194597209	1
0	1898	2026.330085987159	0
0	1904	2033.155292774207	1
0	1905	2041.656003924838	0
0	1963	2124.776208152218	1
0	1967	2126.366788830404	0
0	2012	2182.844698786272	1
0	2023	2192.225392779635	0
0	2065	2214.882354703278	1
0	2068	2222.704481508654	0
0	2104	2255.664552743397	1
0	2105	2255.838705096203	0
0	2159	2349.512967284562	1
0	2183	2375.354732839651	0
0	2192	2392.881621514405	1
0	2193	2393.085550573403	0
0	2197	2394.358480621872	1
0	2206	2409.315318132385	0
0	2212	2414.242042154178	1
0	2218	2416.079106704298	0
0	2222	2418.35658442777	1
0	2234	2427.582318168393	0
0	2309	2499.620534943437	1
0	2349	2535.458642212387	0
0	2359	2538.528672232654	1
0	2378	2554.793468329398	0
0	2450	2616.84359431711	1
0	2456	2629.404233758413	0
0	2490	2656.794493803543	1
0	2503	2669.717344345623	0
0	2507	2669.805765154081	1
0	2508	2670.339625418622	0
0	2519	2687.797113332671	1
0	2537	2710.965775077565	0
0	2541	2713.264691239094	1
0	2551	2736.829082248295	0
0	2555	2738.926295522207	1
0	2586	2766.556446082605	0
0	2593	2775.109984119486	1
0	2607	2782.41860082269	0
0	2614	2785.106854655476	1
0	2615	2787.238836006148	0
0	2673	2883.053546274712	1
0	2682	2892.026914731662	0
0	2754	2958.498582172343	1
0	2758	2959.051014464382	0
0	2762	2961.480546966414	1
0	2781	2974.994648077814	0
0	2797	2989.913184595885	1
0	2798	2991.201262500432	0
0	2802	2992.676244240814	1
0	2806	2995.395241307849	0
0	2812	2998.55502401912	1
0	2822	3015.240157070813	0
0	2834	3028.395737354026	1
0	2837	3031.624222467687	0
0	2849	3044.755653508923	1
0	2850	3045.939048529498	0
0	2867	3052.409993152695	1
0	2874	3057.107782781973	0
0	2881	3058.469140701668	1
0	2917	3104.761400449853	0
0	2946	3139.585171611538	1
0	2955	3150.784935066927	0
0	2959	3151.499079121185	1
0	2960	3152.584850863749	0
0	2974	3164.246523554515	1
0	2979	3167.261454236808	0
0	2983	3171.469596574422	1
0	2987	3176.553106268304	0
0	3009	3199.208532568512	1
0	3010	3199.526292976083	0
0	3030	3211.618800443208	1
0	3051	3229.845214432618	0
0	3055	3237.838409439151	1
0	3056	3239.362683829981	0
0	3126	3330.218449416192	1
0	3145	3349.081105651034	0
0	3182	3386.6679560444	1
0	3196	3402.093903477618	0
0	3200	3406.350869174627	1
0	3206	3411.23147511979	0
0	3213	3422.67538168855	1
0	3214	3425.107114016576	0
0	3218	3426.500521286768	1
0	3219	3427.245930047113	0
0	3227	3431.683072415314	1
0	3236	3438.061388225899	0
0	3240	3441.818352650138	1
0	3266	3462.513019913636	0
0	3281	3483.406499155698	1
0	3287	3493.279836005559	0
0	3318	3544.410259790662	1
0	3332	3564.458014060629	0
0	3356	3590.192929304974	1
0	3368	3599.399762455331	0
0	3460	3679.581619536021	1
0	3468	3698.03419279795	0
0	3564	3847.000304090823	1
0	3573	3850.080568683392	0
0	3580	3853.322289091144	1
0	3592	3865.238383637111	0
0	3623	3920.032507065415	1
0	3637	3924.779453246433	0
0	3726	4017.461986957592	1
0	3733	4025.288959808663	0
0	3740	4026.421127600472	1
0	3744	4033.545463540252	0
0	3756	4043.676120101309	1
0	3757	4044.705421551698	0
0	3771	4052.121594823371	1
0	3772	4056.139092556911	0
0	3808	4086.363204230621	1
0	3811	4089.920061422175	0
0	3862	4136.405423385676	1
0	3865	4137.755246399099	0
0	3869	4137.932203556182	1
0	3873	4138.498283172016	0
0	3880	4143.252748192527	1
0	3892	4149.303993941946	0
0	4043	4309.777028118946	1
0	4044	4312.01258009329	0
0	4053	4319.633570927742	1
0	4063	4321.100603886549	0
0	4131	4410.891409178475	1
0	4141	4421.844686157949	0
0	4196	4493.992146397124	1
0	4197	4497.916529264521	0
0	4235	4543.055775364709	1
0	4243	4561.059946650882	0
0	4373	4691.328567230986	1
0	4392	4708.023054496997	0
0	4462	4794.689789371598	1
0	4463	4799.584789839539	0
0	4469	4809.449712170212	1
0	4473	4818.551359889198	0
0	4512	4849.5840822676	1
0	4534	4879.434981519883	0
0	4538	4882.124540854675	1
0	4551	4899.128782281157	0
0	4565	4916.422159445711	1
0	4579	4933.566947344963	0
0	4722	5090.065948292531	1
0	4728	5098.106750892209	0
0	4819	5192.876805815079	1
0	4825	5202.995559011913	0
0	4832	5209.109751278221	1
0	4848	5225.527750461516	0
0	4852	5226.93488331709	1
0	4853	5244.21080586131	0
0	4860	5252.436198381536	1
0	4880	5271.16132087663	0
0	4904	5295.94600008359	1
0	4908	5300.916768952581	0
0	4940	5319.564364970503	1
0	4943	5323.436205612671	0
0	5004	5416.084060356554	1
0	5032	5437.625166385354	0
0	5036	5445.03813031821	1
0	5037	5445.253335170129	0
0	5044	5452.556553816076	1
0	5060	5471.644906167418	0
0	5064	5472.621406224166	1
0	5073	5485.089790598895	0
0	5080	5487.661348721608	1
0	5081	5488.019200777604	0
0	5085	5490.007061089076	1
0	5108	5520.691861093451	0
0	5164	5602.373101198994	1
0	5178	5609.27697618021	0
0	5210	5627.403080731902	1
0	5216	5643.288861668143	0
0	5220	5652.725471885133	1
0	5227	5663.209980730171	0
0	5242	5679.532450298945	1
0	5251	5693.021262099569	0
0	5260	5703.210582202358	1
0	5273	5726.303192462585	0
0	5284	5740.94613083504	1
0	5293	5764.416100382671	0
0	5299	5768.713797384275	1
0	5300	5769.14868439489	0
0	5304	5770.056607243133	1
0	5308	5772.657531082145	0
0	5398	5860.700948161573	1
0	5413	5867.702772154285	0
0	5460	5894.833421182178	1
0	5461	5896.681980147533	0
0	5482	5920.267626482845	1
0	5485	5924.829576770365	0
0	5495	5932.163675822721	1
0	5503	5934.88847002557	0
0	5540	5984.777515414137	1
0	5550	5996.369424895491	0
0	5631	6068.947039598096	1
0	5635	6070.397754736912	0
0	5656	6088.103344827984	1
0	5660	6091.196899652532	0
0	5689	6126.658219646259	1
0	5704	6138.716357815243	0
0	5711	6140.464437612356	1
0	5717	6150.937320335455	0
0	5723	6153.728689772682	1
0	5726	6156.299876008944	0
0	5735	6165.113297654491	1
0	5741	6170.207078329486	0
0	5909	6358.293524748876	1
0	5913	6362.130961285243	0
0	5966	6420.443372493999	1
0	5970	6424.655905227382	0
0	6068	6547.132318168855	1
0	6069	6548.263031572344	0
0	6098	6558.411218722842	1
0	6107	6565.576293954352	0
0	6253	6773.822815938524	1
0	6254	6782.941568675042	0
0	6258	6784.373990310999	1
0	6259	6785.21300435658	0
0	6279	6793.671038057144	1
0	6288	6798.261745502772	0
0	6294	6801.445133049573	1
0	6295	6803.89067220363	0
0	6410	6932.577934700891	1
0	6411	6936.610789315163	0
0	6471	6986.94314823124	1
0	6486	7000.715295082162	0
0	6495	7002.279430452102	1
0	6499	7008.222326676989	0
0	6576	7090.954058558049	1
0	6588	7096.181412054772	0
0	6626	7124.146049961469	1
0	6640	7155.708916577722	0
0	6659	7172.816237968998	1
0	6670	7187.187531049068	0
0	6716	7247.764927809364	1
0	6726	7258.173177015351	0
0	6730	7261.326791717514	1
0	6736	7269.805024746441	0
0	6755	7286.780235843077	1
0	6764	7298.402430273514	0
0	6771	7303.035323489413	1
0	6772	7303.208792352941	0
0	6897	7497.763453078829	1
0	6901	7507.86911037414	0
0	6973	7583.357777539371	1
0	6980	7586.351778515064	0
0	6994	7590.327984218028	1
0	6997	7599.524576997669	0
0	7101	7699.464291606147	1
0	7102	7699.715510496332	0
0	7124	7723.81527139448	1
0	7141	7738.231765177635	0
0	7185	7783.024835751988	1
0	7211	7815.000384619934	0
0	7234	7836.816431985226	1
0	7235	7839.089429402282	0
0	7239	7840.148223876566	1
0	7249	7851.100750078639	0
0	7274	7865.50417782555	1
0	7278	7869.105522863965	0
0	7282	7871.194717802948	1
0	7283	7873.393783004397	0
0	7305	7887.761012222562	1
0	7308	7891.208866380431	0
0	7342	7931.760390143978	1
0	7343	7932.935118799439	0
0	7407	7986.517394076166	1
0	7422	7997.751659331374	0
0	7592	8193.671852527009	1
0	7595	8200.41716631793	0
0	7663	8275.270693639803	1
0	7670	8279.121435795999	0
0	7702	8312.80647970204	1
0	7720	8338.026468291334	0
0	7740	8360.548213951287	1
0	7741	8361.892056316145	0
0	7760	8381.606394790891	1
0	7775	8391.012271984521	0
0	7950	8636.477384361915	1
0	7959	8657.795242016063	0
0	7984	8674.663335108585	1
0	7985	8676.242358268647	0
0	8012	8705.687170237886	1
0	8013	8721.813582717271	0
0	8070	8788.044623593713	1
0	8071	8792.062677027806	0
0	8093	8811.305582722656	1
0	8094	8819.871358939653	0
0	8098	8825.074100770637	1
0	8113	8843.240919557595	0
0	8157	8881.949378299173	1
0	8170	8892.794201553287	0
0	8186	8907.475358354299	1
0	8189	8909.144190309294	0
0	8198	8921.472242857209	1
0	8216	8956.066172103808	0
0	8292	9038.038712589691	1
0	8293	9038.590674664497	0
0	8398	9132.485909811837	1
0	8402	9137.394052770912	0
0	8406	9141.331140314746	1
0	8419	9163.733766849513	0
0	8438	9181.041722938405	1
0	8442	9184.097376522464	0
0	8446	9187.747765955612	1
0	8462	9207.854850993641	0
0	8487	9229.866170087734	1
0	8490	9232.082060918917	0
0	8497	9234.283905782435	1
0	8498	9234.894691620324	0
0	8507	9245.235789361849	1
0	8513	9249.903688346422	0
0	8584	9308.805037191426	1
0	8598	9313.290343909826	0
0	8604	9316.897516797571	1
0	8641	9372.21965576369	0
0	8645	9372.588298476838	1
0	8654	9386.966642944855	0
0	8681	9410.554058907667	1
0	8705	9422.464151979631	0
0	8727	9453.753534479587	1
0	8753	9473.705940498367	0
0	8830	9593.164718466093	1
0	8837	9605.827792275567	0
0	8876	9644.591771621659	1
0	8877	9644.783964406967	0
0	8897	9662.205778572118	1
0	8898	9667.408147864924	0
0	8902	9671.437251307057	1
0	8906	9672.935267125189	0
0	8914	9686.10655835111	1
0	8941	9722.897838720606	0
0	8948	9739.877019447547	1
0	8952	9741.157928765414	0
0	8976	9759.408859715623	1
0	8977	9763.580652512232	0
0	9011	9799.203116673184	1
0	9012	9800.193680546441	0
0	9016	9802.021498454937	1
0	9028	9819.016431142312	0
0	9138	9919.802909716836	1
0	9139	9922.405325956028	0
0	9143	9923.186589205796	1
0	9154	9941.537004464476	0
0	9163	9960.541868475565	1
0	9164	9960.754510697811	0
0	9231	10098.959206880789	1
0	9258	10119.222756032146	0
0	9321	10198.798782592535	1
0	9352	10239.67404217233	0
0	9411	10302.460119333513	1
0	9438	10319.650723600683	0
0	9447	10322.595238834715	1
0	9451	10327.674496808547	0
0	9489	10361.007795822969	1
0	9537	10409.086815616252	0
0	9669	10601.705249738436	1
0	9673	10608.331116697197	0
0	9741	10677.552500274106	1
0	9742	10683.229257452013	0
0	9765	10698.29944957204	1
0	9766	10699.180676517001	0
0	9777	10704.91867362924	1
0	9781	10707.466780401399	0
0	9790	10711.638438116838	1
0	9793	10713.233818030806	0
0	9868	10784.607600616999	1
0	9869	10785.434949670813	0
0	9963	10913.50551298076	1
0	9970	10925.602471168411	0
0	10019	10971.370658802795	1
0	10026	10974.99003999224	0
0	10059	11021.360985101781	1
0	10060	11025.122606138376	0
0	10073	11036.147342883958	1
0	10077	11038.309004901831	0
0	10158	11122.708419712496	1
0	10168	11130.782220628497	0
0	10183	11141.656531434067	1
0	10192	11148.038044108956	0
0	10196	11151.871863296391	1
0	10197	11153.27555841449	0
0	10219	11167.02893691111	1
0	10220	11168.957282917903	0
0	10224	11170.474174456185	1
0	10238	11196.29800124165	0
0	10298	11258.192918354022	1
0	10310	11270.712829873941	0
0	10322	11276.022816568773	1
0	10323	11283.358554577878	0
0	10330	11288.732994340596	1
0	10331	11294.780116084926	0
0	10408	11372.722072839363	1
0	10414	11387.321719493003	0
0	10418	11388.009642863057	1
0	10446	11422.848837785009	0
0	10463	11436.948568195606	1
0	10466	11439.6744270654	0
0	10470	11445.072518408308	1
0	10473	11450.878463322778	0
0	10593	11573.729982055618	1
0	10610	11590.593860420762	0
0	10650	11609.185977333925	1
0	10704	11667.620304442262	0
0	10764	11765.627965597155	1
0	10773	11770.402843869574	0
0	10811	11790.12246682396	1
0	10828	11798.779380243863	0
0	10921	11888.808761889858	1
0	10949	11920.833561892619	0
0	10966	11926.979942046226	1
0	10975	11933.984861017217	0
0	10990	11948.962841584961	1
0	11015	11969.875824195727	0
0	11050	12008.246183682244	1
0	11070	12028.912909639513	0
0	11175	12142.705273295624	1
0	11176	12144.966861266415	0
0	11187	12158.681280589114	1
0	11191	12166.023201956308	0
0	11255	12238.691016258318	1
0	11259	12246.463619712649	0
0	11285	12280.369179060598	1
0	11300	12301.729344897075	0
0	11353	12362.698571450745	1
0	11357	12366.123067430138	0
0	11428	12435.791842813404	1
0	11429	12436.048358078083	0
0	11440	12446.678978774649	1
0	11441	12446.724548604183	0
0	11445	12447.159700461941	1
0	11461	12459.889806103368	0
0	11505	12514.197234662418	1
0	11506	12516.638257128692	0
0	11510	12518.864819106192	1
0	11518	12522.469421457749	0
0	11524	12524.885723532885	1
0	11533	12527.884428656474	0
0	11639	12660.152905284484	1
0	11646	12675.644739743475	0
0	11673	12703.977962039848	1
0	11685	12717.262648117027	0
0	11761	12789.920418369592	1
0	11770	12812.739930555047	0
0	11777	12815.308975959159	1
0	11781	12819.806460786428	0
0	11920	12969.36856470249	1
0	11927	12982.015067536673	0
0	11931	12983.707269473162	1
0	11962	13005.56261394809	0
0	11966	13006.223495332995	1
0	11976	13025.470464055103	0
0	12013	13070.386798091228	1
0	12014	13073.311234203917	0
0	12023	13080.234960699495	1
0	12024	13083.999155851503	0
0	12050	13106.880116668163	1
0	12054	13107.82129660012	0
0	12058	13107.853517748037	1
0	12059	13109.712670123212	0
0	12073	13119.873811797833	1
0	12074	13121.135023180948	0
0	12142	13194.154410103732	1
0	12164	13225.430160319358	0
0	12168	13226.91772780191	1
0	12172	13229.070003360455	0
0	12237	13285.308228143412	1
0	12238	13289.235518795877	0
0	12252	13302.525226471635	1
0	12256	13303.214801399794	0
0	12314	13397.655515061364	1
0	12326	13407.180525443697	0
0	12349	13469.960881944291	1
0	12368	13491.63918534914	0
0	12377	13507.6799955075	1
0	12386	13511.071122401847	0
0	12400	13517.62261199978	1
0	12425	13539.53257713189	0
0	12442	13553.146436995019	1
0	12450	13562.802104319855	0
0	12479	13607.314353818221	1
0	12498	13621.952266611706	0
0	12505	13629.185581710156	1
0	12511	13634.05426021579	0
0	12522	13647.503560978607	1
0	12529	13654.772934785306	0
0	12555	13695.680462420912	1
0	12564	13700.27526285922	0
0	12568	13702.256652023085	1
0	12581	13712.038100090772	0
0	12587	13716.826689490248	1
0	12603	13729.281591353094	0
0	12615	13732.861823789835	1
0	12622	13737.648123190403	0
0	12626	13738.04368730829	1
0	12627	13743.806661125285	0
0	12682	13796.035819290883	1
0	12686	13797.311798250333	0
0	12721	13832.304946841807	1
0	12731	13843.986292910874	0
0	12747	13850.676393484435	1
0	12748	13852.739362421271	0
0	12789	13899.267418909733	1
0	12790	13900.100619731369	0
0	12817	13926.695908813867	1
0	12821	13928.968132864743	0
0	12856	13965.678661138118	1
0	12870	13981.112201106596	0
0	12926	14055.465154340555	1
0	12932	14064.99858944973	0
0	12941	14087.406661613001	1
0	12956	14107.558996563811	0
0	13036	14197.066580086309	1
0	13037	14205.585754261838	0
0	13041	14205.766561418486	1
0	13052	14215.464596551765	0
0	13128	14325.685520470312	1
0	13149	14340.30290568412	0
0	13157	14350.94423293667	1
0	13164	14368.792706969024	0
0	13183	14388.574992274733	1
0	13184	14390.925685229061	0
0	13193	14401.313516999355	1
0	13194	14403.968360256127	0
0	13268	14461.281772845433	1
0	13291	14482.064881765498	0
0	13618	14854.902626229118	1
0	13627	14857.719942310164	0
0	13631	14859.835365697198	1
0	13632	14866.023507768351	0
0	13644	14873.01823217405	1
0	13649	14890.696409204926	0
0	13673	14925.149665405925	1
0	13674	14928.253024804362	0
0	13678	14929.210402262548	1
0	13703	14954.720590695478	0
0	13715	14970.020936788333	1
0	13725	14976.700482837303	0
0	13875	15171.645116557953	1
0	13876	15171.780518882603	0
0	13949	15256.137172183493	1
0	13966	15294.631667134218	0
0	13978	15306.620029536443	1
0	14014	15342.338646225907	0
0	14044	15374.350665732736	1
0	14050	15390.364727597228	0
0	14140	15483.466861209579	1
0	14141	15486.75281441542	0
0	14198	15536.210248435565	1
0	14211	15544.861681855555	0
0	14252	15596.769886734574	1
0	14264	15613.326789899961	0
0	14324	15670.422756898068	1
0	14325	15672.991057884453	0
0	14329	15674.403061038742	1
0	14335	15681.292174965473	0
0	14347	15685.524041754578	1
0	14348	15688.846498907998	0
0	14378	15711.01508042088	1
0	14382	15714.259368715775	0
0	14386	15715.245036281034	1
0	14387	15716.260499706907	0
0	14391	15717.020814582943	1
0	14398	15720.563725616976	0
0	14480	15798.061292996392	1
0	14497	15820.444646842654	0
0	14511	15841.433979743902	1
0	14514	15846.575640766036	0
0	14554	15874.810098630904	1
0	14566	15886.78988123417	0
0	14570	15891.381164772484	1
0	14571	15898.148491658616	0
0	14575	15901.507564925979	1
0	14576	15910.954719260776	0
0	14608	15954.939724037859	1
0	14609	15960.40666151279	0
0	14619	15963.291801617079	1
0	14620	15967.414887095524	0
0	14696	16060.754410532414	1
0	14703	16063.962651761444	0
0	14784	16119.23663445782	1
0	14797	16134.038221040838	0
0	14913	16250.548189786781	1
0	14917	16251.712754875679	0
0	14955	16305.44870841533	1
0	14958	16322.526534171764	0
0	14987	16343.756038987738	1
0	14996	16348.018950500146	0
0	15002	16352.195232670026	1
0	15011	16377.359545539827	0
0	15020	16383.176005307166	1
0	15024	16386.705075409005	0
0	15043	16402.683866911179	1
0	15051	16411.755853638781	0
0	15087	16444.525710109217	1
0	15100	16465.520812325724	0
0	15311	16699.468190717768	1
0	15312	16699.754618417874	0
0	15336	16726.58128537177	1
0	15352	16745.344010948916	0
0	15356	16745.747520632528	1
0	15357	16751.178834591223	0
0	15397	16809.013897793406	1
0	15403	16812.801982473227	0
0	15480	16884.823318893532	1
0	15487	16888.535989423152	0
0	15509	16906.394333731338	1
0	15510	16906.636379508532	0
0	15613	17012.189758450719	1
0	15641	17035.625300512674	0
0	15650	17040.547707834747	1
0	15656	17051.810398988477	0
0	15760	17176.214957134834	1
0	15768	17183.180471415458	0
0	15780	17189.991896284927	1
0	15784	17206.030730602205	0
0	15810	17225.490968614334	1
0	15831	17236.877334439082	0
0	15885	17294.332159948283	1
0	15886	17294.573792323742	0
0	15916	17330.920693152653	1
0	15917	17332.394134940688	0
0	15924	17336.57619909448	1
0	15930	17339.135793599577	0
0	15968	17379.502701434818	1
0	15981	17389.559839804729	0
0	15992	17395.344904615549	1
0	15998	17398.206743421099	0
0	16002	17398.582412311953	1
0	16018	17405.422946179117	0
0	16022	17412.612947027885	1
0	16042	17438.889058768859	0
0	16101	17516.472017048227	1
0	16129	17550.797293883411	0
0	16183	17609.30446412522	1
0	16184	17610.989338904541	0
0	16190	17616.57325910885	1
0	16199	17628.632462136165	0
0	16214	17660.131882059539	1
0	16228	17679.856253345838	0
0	16281	17735.301882416986	1
0	16282	17739.500786192791	0
0	16300	17763.475093532749	1
0	16333	17788.426281245153	0
0	16356	17812.852209142449	1
0	16357	17813.273166173891	0
0	16375	17845.361123810096	1
0	16376	17845.961678659645	0
0	16392	17865.450928170859	1
0	16398	17870.48626357105	0
0	16479	17942.331619168392	1
0	16480	17943.548985334964	0
0	16484	17945.132140886555	1
0	16491	17951.179163216421	0
0	16507	17958.828312402355	1
0	16508	17962.563741465684	0
0	16551	17994.315800773689	1
0	16576	18022.332350220518	0
0	16614	18046.074463898277	1
0	16615	18047.049833753592	0
0	16625	18055.590029876741	1
0	16628	18062.844743824326	0
0	16638	18067.695660622969	1
0	16642	18071.333693409846	0
0	16646	18072.52960613463	1
0	16661	18095.690243520688	0
0	16680	18119.644507429045	1
0	16684	18125.161888331036	0
0	16696	18129.7163945938	1
0	16706	18141.604591334736	0
0	16710	18149.188988520731	1
0	16711	18149.522956495939	0
0	16768	18218.182997751963	1
0	16771	18218.692907350431	0
0	16787	18230.127645167371	1
0	16788	18232.697234868966	0
0	16833	18297.344537667043	1
0	16844	18312.443045208592	0
0	16863	18335.223005594198	1
0	16877	18356.653774643138	0
0	16881	18357.783372254969	1
0	16887	18367.761256940717	0
0	17040	18531.56018429551	1
0	17044	18535.913692293528	0
0	17061	18544.929818525509	1
0	17065	18546.137070738803	0
0	17097	18571.257587870905	1
0	17107	18594.216198834723	0
0	17237	18728.848924873207	1
0	17246	18746.636471083277	0
0	17339	18867.443100720147	1
0	17350	18888.978101442064	0
0	17385	18929.515943556932	1
0	17389	18932.806726981952	0
0	17469	19009.338725675124	1
0	17478	19012.689840659716	0
0	17484	19013.056099116102	1
0	17485	19013.110085886066	0
0	17529	19053.244341707909	1
0	17530	19053.792053235648	0
0	17534	19053.905682684271	1
0	17541	19062.583776393906	0
0	17556	19074.302903315916	1
0	17563	19083.302502446803	0
0	17590	19107.453673154653	1
0	17591	19109.601915545859	0
0	17678	19184.907188647312	1
0	17737	19236.596554745918	0
0	17741	19237.333508160375	1
0	17745	19244.750621330514	0
0	17778	19283.22905169826	1
0	17798	19317.548928688037	0
0	17860	19374.988799514016	1
0	17871	19383.131187260136	0
0	17889	19405.956216719257	1
0	17904	19435.584927479437	0
0	17990	19532.507264960046	1
0	18004	19543.113668154157	0
0	18055	19608.735048032296	1
0	18062	19618.885017428494	0
0	18066	19619.847542978117	1
0	18087	19634.867883248909	0
0	18224	19837.904634749195	1
0	18225	19849.417327752249	0
0	18275	19907.633892022335	1
0	18278	19911.103735595529	0
0	18335	19965.047331422218	1
0	18338	19966.144870124639	0
0	18416	20043.074175245421	1
0	18425	20050.327928728877	0
0	18429	20050.469914991162	1
0	18430	20051.330493116579	0
0	18449	20081.896409552198	1
0	18454	20086.114709316055	0
0	18497	20112.638836487086	1
0	18501	20115.169836346161	0
0	18531	20145.325155836358	1
0	18542	20165.438306816983	0
0	18565	20190.816684388961	1
0	18569	20194.435923852812	0
0	18583	20199.607962308817	1
0	18591	20203.755262169001	0
0	18595	20203.80668083721	1
0	18611	20211.857347706182	0
0	18618	20216.436400571655	1
0	18632	20224.561345040869	0
0	18713	20283.991158755368	1
0	18714	20285.860497925029	0
0	18721	20292.256176300254	1
0	18751	20313.652394210085	0
0	18755	20313.896385956755	1
0	18756	20315.172507294859	0
0	18773	20341.341903603365	1
0	18776	20343.306995222565	0
0	18780	20343.973828100397	1
0	18784	20347.506290157647	0
0	18861	20439.057506936433	1
0	18872	20442.458316917735	0
0	18882	20448.74449055051	1
0	18888	20453.491866561398	0
0	18906	20485.438037088115	1
0	18915	20496.633436297292	0
0	18919	20503.031815159246	1
0	18920	20506.199841668201	0
0	19011	20612.931457371682	1
0	19014	20628.254613493967	0
0	19018	20628.632000345316	1
0	19025	20638.978686449907	0
0	19034	20641.868194970991	1
0	19058	20672.81942881599	0
0	19077	20699.96130089269	1
0	19078	20702.02705372109	0
0	19109	20756.668003308929	1
0	19110	20759.45970466619	0
0	19117	20760.228510399469	1
0	19131	20779.630745790111	0
0	19135	20779.919234615885	1
0	19136	20790.142774936438	0
0	19140	20790.71563999615	1
0	19152	20802.333427172682	0
0	19228	20920.836944666393	1
0	19229	20924.118026399995	0
0	19241	20939.601638424198	1
0	19242	20941.47832300635	0
0	19282	20991.547797740895	1
0	19297	21000.362248776876	0
0	19349	21043.151734679975	1
0	19381	21081.390094749918	0
0	19393	21091.605717788568	1
0	19408	21104.072648496207	0
0	19412	21105.069886088003	1
0	19435	21132.643568730944	0
0	19457	21140.267355659182	1
0	19469	21164.30325301236	0
0	19475	21169.144877153084	1
0	19486	21184.891277033059	0
0	19490	21186.357131397398	1
0	19491	21189.155273962217	0
0	19495	21192.902093574836	1
0	19496	21197.260355735566	0
0	19529	21225.03565439196	1
0	19539	21228.577328131523	0
0	19597	21267.253903974	1
0	19615	21284.171501310794	0
0	19619	21285.338130977214	1
0	19620	21286.73578702327	0
0	19628	21291.520973865475	1
0	19632	21293.062120174547	0
0	19663	21316.433217509467	1
0	19669	21325.763830856941	0
0	19683	21350.58908790993	1
0	19689	21357.570760263776	0
0	19757	21427.029188040011	1
0	19775	21445.300484771731	0
0	19779	21445.49256013078	1
0	19780	21445.925627396806	0
0	19789	21447.500933767914	1
0	19801	21458.497199880933	0
0	19904	21596.230522766128	1
0	19916	21608.649647121429	0
0	19968	21667.198195224327	1
0	19971	21671.042298964661	0
0	19989	21687.264046181973	1
0	20008	21700.765667817319	0
0	20020	21722.085497703676	1
0	20041	21760.611104831502	0
0	20079	21799.173305022762	1
0	20083	21804.231129224959	0
0	20087	21804.889288731797	1
0	20096	21812.678328007614	0
0	20124	21851.593189865684	1
0	20125	21853.642137225006	0
0	20161	21881.529400507026	1
0	20167	21905.917834425949	0
0	20181	21918.48361910761	1
0	20190	21941.405032303901	0
0	20211	21954.216678592477	1
0	20212	21955.103895625007	0
0	20247	22014.567898527492	1
0	20248	22016.641010403056	0
0	20257	22035.53376220603	1
0	20258	22041.899058002363	0
0	20373	22166.461473528062	1
0	20380	22168.131647594579	0
0	20421	22216.1389648781	1
0	20422	22222.528989197294	0
0	20480	22309.737490328821	1
0	20489	22317.927692909611	0
0	20513	22343.363079130907	1
0	20523	22345.374058035463	0
0	20527	22347.974737509942	1
0	20533	22350.655100668663	0
0	20537	22353.855686962272	1
0	20538	22354.330487808527	0
0	20574	22398.162533378316	1
0	20578	22402.803522924512	0
0	20664	22492.146477534242	1
0	20667	22499.322779871712	0
0	20683	22513.906051402211	1
0	20698	22524.728673566302	0
0	20729	22575.017745821745	1
0	20735	22579.546781912383	0
0	20742	22582.109080687397	1
0	20748	22587.254307606135	0
0	20764	22605.044732855645	1
0	20770	22620.544637707478	0
0	20774	22623.143098014919	1
0	20781	22625.585517079876	0
0	20787	22634.548173139409	1
0	20799	22650.295172402125	0
0	20823	22676.659089766763	1
0	20827	22684.995043566607	0
0	20871	22772.302257126663	1
0	20892	22797.856370568395	0
0	20918	22840.202961788961	1
0	20926	22844.27317925797	0
0	20930	22854.375410104475	1
0	20937	22857.092394417751	0
0	21003	22917.925295324713	1
0	21007	22918.08430369148	0
0	21024	22928.495010386566	1
0	21060	22956.696319619246	0
0	21100	22983.745182369029	1
0	21114	23000.684921944388	0
0	21118	23002.605603583625	1
0	21134	23014.692005531735	0
0	21169	23056.578882389973	1
0	21181	23072.172038055022	0
0	21187	23076.931408103838	1
0	21188	23081.042952823391	0
0	21197	23095.129493520641	1
0	21198	23102.096093095378	0
0	21202	23103.397206713786	1
0	21203	23111.622045363349	0
0	21207	23118.23838137919	1
0	21225	23136.533993166716	0
0	21229	23137.996234509872	1
0	21236	23146.356763032081	0
0	21261	23168.96279970209	1
0	21265	23172.822500746078	0
0	21335	23230.052514510704	1
0	21350	23259.157488032898	0
0	21399	23317.985113892756	1
0	21400	23318.793569235134	0
0	21404	23327.393633030688	1
0	21413	23334.755861845612	0
0	21417	23335.161924593163	1
0	21429	23355.174304208622	0
0	21444	23376.176541378172	1
0	21468	23405.261266026603	0
0	21494	23431.414900391788	1
0	21495	23436.402578532214	0
0	21507	23444.683893532493	1
0	21508	23445.560740522971	0
0	21654	23584.020288429467	1
0	21658	23588.575079014659	0
0	21666	23594.842419610824	1
0	21667	23595.758082995981	0
0	21688	23609.693710974391	1
0	21695	23614.110571739166	0
0	21699	23614.774443911807	1
0	21702	23617.713110537733	0
0	21708	23621.355306065515	1
0	21717	23633.424611720932	0
0	21754	23699.803642570837	1
0	21758	23705.173119966333	0
0	21768	23715.087859961565	1
0	21790	23744.062599001398	0
0	21844	23827.505089142569	1
0	21845	23828.925272478063	0
0	21849	23833.085647229075	1
0	21869	23841.627369531426	0
0	21875	23842.268846310174	1
0	21915	23868.72370729382	0
0	21962	23933.424817420101	1
0	21966	23936.223851959448	0
0	22021	23984.466603275548	1
0	22038	24005.202704408518	0
0	22061	24019.396610065416	1
0	22062	24020.252152592996	0
0	22094	24047.941956681706	1
0	22100	24055.600886756713	0
0	22104	24060.934978681943	1
0	22117	24076.736886253231	0
0	22199	24181.99382723244	1
0	22203	24192.989483328488	0
0	22229	24208.542857077747	1
0	22232	24218.498284865126	0
0	22241	24225.183241904384	1
0	22248	24231.290328221969	0
0	22255	24235.763868565459	1
0	22279	24265.560420724043	0
0	22283	24271.756458311273	1
0	22287	24276.589945560101	0
0	22323	24313.790890369568	1
0	22324	24314.012934425786	0
0	22336	24324.913002426637	1
0	22353	24335.401857014442	0