version 2
run MM11_3_round_robin-0-20151213-21:18:02-30272
attr configname MM11_3_round_robin
attr datetime 20151213-21:18:02
attr experiment MM11_3_round_robin
attr inifile omnetpp.ini
attr iterationvars ""
attr iterationvars2 $repetition=0
attr measurement ""
attr network MM11_3
attr processid 30272
attr repetition 0
attr replication #0
attr resultdir results
attr runnumber 0
attr seedset 1

vector 0  MM11_3.queue1  queueLength:vector  ETV
attr interpolationmode  sample-hold
attr title  "queue length, vector"
vector 1  MM11_3.queue2  queueLength:vector  ETV
attr interpolationmode  sample-hold
attr title  "queue length, vector"
vector 2  MM11_3.queue3  queueLength:vector  ETV
attr interpolationmode  sample-hold
attr title  "queue length, vector"
vector 3  MM11_3.snk1  lifeTime:vector  ETV
attr interpolationmode  none
attr title  "lifetime of arrived jobs, vector"
attr unit  s
0	0	0	0
0	70	125.883331866483	1
0	92	142.557360118921	0
0	100	154.757288564702	1
0	101	157.625687608848	0
0	113	169.654247612094	1
0	124	192.127958481708	0
0	203	267.898264422286	1
0	207	271.298502837519	0
0	272	323.983838546271	1
0	281	329.336844108582	0
0	356	402.787083946338	1
0	365	415.206800227455	0
0	369	417.642263952578	1
0	372	419.948271768229	0
0	401	448.56563013094	1
0	402	452.476045645448	0
0	414	461.826215497794	1
0	415	462.248992878728	0
0	425	467.749135509748	1
0	432	476.655782733504	0
0	536	588.199681915485	1
0	540	598.555204426693	0
0	547	607.029943286253	1
0	559	610.296009056591	0
0	571	620.052020990045	1
0	594	637.26643882141	0
0	615	645.80221713753	1
0	622	650.048121783244	0
0	626	650.923819644475	1
0	627	651.125479932364	0
0	686	704.113933524534	1
0	690	711.396808398123	0
0	727	739.203192208744	1
0	735	741.483239568855	0
0	742	753.119255298267	1
0	743	756.713936530196	0
0	753	763.403684360814	1
0	770	769.196283347675	0
0	781	771.612728389447	1
0	782	772.407226347718	0
0	880	895.380380097188	1
0	883	899.126664001347	0
0	1065	1089.499776894667	1
0	1071	1101.996370856578	0
0	1114	1139.425634064305	1
0	1129	1147.612773220018	0
0	1346	1427.780633210351	1
0	1349	1432.930665859935	0
0	1361	1438.740213696953	1
0	1364	1439.230085804082	0
0	1408	1481.298679468124	1
0	1409	1483.289148207416	0
0	1494	1575.340755978779	1
0	1508	1586.456436688104	0
0	1535	1623.992089178576	1
0	1544	1628.83680907605	0
0	1582	1667.803064234929	1
0	1606	1683.575308851147	0
0	1647	1708.979519947574	1
0	1670	1725.708470216054	0
0	1681	1732.826044237767	1
0	1720	1769.991000354941	0
0	1746	1799.458267102227	1
0	1755	1811.343204220955	0
0	1864	1964.024445846003	1
0	1889	1983.836458251052	0
0	1899	1992.766821575021	1
0	1910	2008.78582169239	0
0	1914	2010.692551156675	1
0	1930	2020.528089436328	0
0	1942	2027.966481380914	1
0	1982	2066.334532100422	0
0	2026	2104.292058152591	1
0	2027	2105.383953917665	0
0	2069	2155.903325758239	1
0	2073	2159.720019062695	0
0	2116	2205.008064222585	1
0	2120	2214.802058909583	0
0	2144	2226.007051003069	1
0	2145	2229.059575107743	0
0	2159	2234.793761317333	1
0	2160	2235.195245149083	0
0	2217	2323.690060438954	1
0	2256	2358.233450778801	0
0	2265	2372.401590212961	1
0	2266	2374.128183161866	0
0	2325	2448.38027759898	1
0	2329	2451.955961758682	0
0	2338	2460.752970977755	1
0	2348	2473.972030766142	0
0	2360	2481.223649105385	1
0	2363	2491.069541212633	0
0	2401	2535.611751287695	1
0	2416	2554.894599877667	0
0	2420	2556.053450742714	1
0	2439	2577.060412606081	0
0	2446	2582.091860978142	1
0	2459	2598.850107992701	0
0	2465	2600.120747195298	1
0	2474	2605.741327068122	0
0	2551	2694.627279947945	1
0	2552	2694.897255527675	0
0	2637	2765.185626955924	1
0	2648	2778.229145197964	0
0	2652	2789.191428598781	1
0	2661	2801.412488217269	0
0	2665	2805.870362789623	1
0	2685	2813.82907291784	0
0	2689	2815.060319080684	1
0	2693	2823.104612306029	0
0	2704	2838.802488892866	1
0	2721	2859.145434074057	0
0	2728	2859.472415995512	1
0	2731	2863.128633402023	0
0	2801	2935.917877329932	1
0	2802	2936.643437986913	0
0	2812	2940.453270488108	1
0	2829	2957.062018087654	0
0	2855	2976.630183594478	1
0	2859	2984.421922016772	0
0	3001	3131.896979914958	1
0	3046	3160.648010831537	0
0	3057	3171.947188186862	1
0	3067	3176.731223048741	0
0	3141	3260.706383944134	1
0	3170	3281.490839647085	0
0	3182	3297.164925107763	1
0	3188	3302.813230733216	0
0	3195	3305.830096450824	1
0	3213	3329.161267975358	0
0	3225	3337.847848660021	1
0	3236	3355.120924226162	0
0	3268	3380.366909317715	1
0	3273	3383.630136576654	0
0	3311	3409.900475796235	1
0	3319	3418.992177105861	0
0	3328	3429.575119921714	1
0	3355	3458.499176967404	0
0	3359	3459.125164678133	1
0	3360	3460.123560294339	0
0	3372	3465.825730685697	1
0	3375	3468.132825927476	0
0	3387	3475.429922500839	1
0	3388	3480.967142485033	0
0	3406	3502.583130465006	1
0	3425	3521.17190740185	0
0	3449	3554.67140880514	1
0	3464	3570.087222890665	0
0	3475	3579.075369601273	1
0	3481	3584.393581619684	0
0	3488	3591.544913257305	1
0	3493	3593.89234669717	0
0	3507	3600.535728334214	1
0	3511	3605.842742424101	0
0	3548	3635.751035697386	1
0	3559	3640.408760526567	0
0	3565	3642.113837470171	1
0	3575	3649.924600357998	0
0	3647	3704.917055469219	1
0	3657	3708.880767871396	0
0	3733	3809.807423841878	1
0	3737	3831.374223010251	0
0	3750	3843.493062519	1
0	3751	3843.531280554603	0
0	3808	3917.503451626389	1
0	3814	3924.29175525717	0
0	3866	3985.766753631755	1
0	3872	3988.553239764502	0
0	3965	4071.598596346534	1
0	4002	4102.412090166105	0
0	4011	4106.786768688605	1
0	4028	4115.503849312536	0
0	4045	4126.163168689887	1
0	4051	4136.248050190186	0
0	4060	4141.370814221976	1
0	4070	4155.582876307197	0
0	4082	4163.525962629617	1
0	4090	4178.430823890672	0
0	4099	4184.209077277104	1
0	4100	4184.406131068729	0
0	4213	4271.559749230058	1
0	4214	4271.596159522695	0
0	4258	4306.170044172213	1
0	4276	4325.390340518677	0
0	4353	4407.910922949494	1
0	4359	4412.754627402844	0
0	4368	4420.310940271112	1
0	4369	4421.093952412793	0
0	4430	4500.130208560361	1
0	4462	4525.428890715519	0
0	4469	4529.185964156175	1
0	4470	4530.186381226587	0
0	4639	4709.710441830371	1
0	4687	4741.588688543639	0
0	4691	4743.650894652087	1
0	4692	4745.670604207137	0
0	4755	4806.851402259729	1
0	4776	4834.04009940272	0
0	4785	4841.398817215691	1
0	4791	4851.529010166581	0
0	4811	4866.88023723018	1
0	4820	4873.239097489702	0
0	4824	4873.391540511486	1
0	4847	4884.007946086287	0
0	4876	4909.749452136257	1
0	4877	4911.353247048321	0
0	4925	5003.82282928125	1
0	4931	5011.74649738968	0
0	4964	5030.626225442328	1
0	4968	5036.916512318828	0
0	4988	5042.228907793768	1
0	5015	5060.523814661348	0
0	5032	5080.245023621505	1
0	5036	5086.727003913391	0
0	5047	5091.26594009884	1
0	5053	5099.003914388975	0
0	5092	5151.692036175024	1
0	5114	5167.329327689852	0
0	5118	5168.3320679361	1
0	5122	5171.438718627937	0
0	5129	5177.620335047453	1
0	5146	5192.2419530868	0
0	5187	5218.240181799118	1
0	5194	5224.027190753655	0
0	5202	5231.361855629997	1
0	5211	5244.534959628636	0
0	5219	5252.448908353107	1
0	5220	5255.21195641878	0
0	5230	5263.778151929989	1
0	5247	5272.528183947399	0
0	5269	5290.933414307843	1
0	5270	5291.839766791188	0
0	5316	5374.309311438925	1
0	5317	5374.759629267272	0
0	5406	5463.79242481746	1
0	5407	5464.497500871559	0
0	5417	5470.756629457072	1
0	5422	5482.629101518814	0
0	5447	5495.530729935115	1
0	5464	5511.683744674919	0
0	5471	5514.211231006525	1
0	5477	5519.175999714993	0
0	5550	5593.556626032665	1
0	5572	5610.556696904134	0
0	5576	5615.5051397232	1
0	5577	5617.787879045171	0
0	5645	5675.271121062314	1
0	5664	5696.057627389952	0
0	5684	5712.993306287951	1
0	5685	5713.593063687625	0
0	5699	5728.281070424202	1
0	5708	5732.928001034507	0
0	5712	5734.64984998939	1
0	5729	5759.37163942918	0
0	5736	5761.267945670768	1
0	5759	5786.109844376405	0
0	5816	5839.879414826771	1
0	5820	5842.049849184823	0
0	5865	5900.653055107026	1
0	5866	5904.524793095978	0
0	5917	5944.308361561141	1
0	5921	5950.672505210708	0
0	5928	5956.571580429312	1
0	5932	5961.992752376686	0
0	5960	5970.316806943387	1
0	5963	5973.692818209191	0
0	5975	5985.311051781426	1
0	5980	5993.970449650513	0
0	6022	6035.034780651193	1
0	6025	6044.585435310991	0
0	6035	6059.244117528997	1
0	6041	6065.234714446795	0
0	6048	6068.896428859911	1
0	6054	6082.424280464362	0
0	6080	6097.837433628524	1
0	6084	6100.718115818709	0
0	6095	6112.706441949581	1
0	6099	6122.624593283929	0
0	6140	6181.814661315806	1
0	6162	6207.489491343767	0
0	6416	6467.998149143558	1
0	6420	6470.236837577984	0
0	6431	6479.775294135355	1
0	6432	6479.998496225071	0
0	6444	6483.826601846846	1
0	6445	6488.005358209569	0
0	6476	6522.11040012148	1
0	6514	6548.279962107725	0
0	6556	6598.89107209293	1
0	6566	6608.487918869808	0
0	6726	6772.168428852658	1
0	6733	6780.307936925735	0
0	6756	6801.379866422016	1
0	6757	6802.625305212792	0
0	6782	6828.959839911483	1
0	6785	6829.62402415873	0
0	6861	6902.275442850649	1
0	6873	6908.812555089082	0
0	6975	7065.45414915763	1
0	7008	7101.1190448141	0
0	7012	7102.206131426445	1
0	7017	7105.483151800557	0
0	7149	7281.591129284282	1
0	7156	7284.803133936069	0
0	7160	7287.608123060878	1
0	7172	7299.708133055826	0
0	7214	7362.746745969482	1
0	7215	7364.01365747891	0
0	7240	7379.348093037291	1
0	7255	7390.118304614637	0
0	7266	7397.280476604171	1
0	7279	7417.796653889588	0
0	7285	7423.224232872899	1
0	7300	7439.915585020451	0
0	7352	7508.603858432911	1
0	7353	7509.946615865385	0
0	7365	7514.529693923994	1
0	7392	7548.308407657055	0
0	7406	7564.618745137408	1
0	7417	7567.987385112433	0
0	7477	7620.145976240941	1
0	7478	7621.220630189582	0
0	7509	7638.501463442092	1
0	7513	7641.71045379514	0
0	7520	7643.493663619791	1
0	7528	7645.123345914613	0
0	7578	7716.375121134421	1
0	7585	7720.79178583473	0
0	7606	7747.224565475191	1
0	7630	7767.863799397971	0
0	7697	7863.395448574987	1
0	7703	7876.603047061914	0
0	7721	7891.354815812352	1
0	7727	7906.006526003941	0
0	7740	7912.470923303963	1
0	7747	7924.9730960536	0
0	7798	7954.430793859347	1
0	7816	7965.473784297759	0
0	7850	7993.726061700578	1
0	7858	8009.131543606857	0
0	7869	8019.332785960227	1
0	7875	8025.995100822652	0
0	7884	8035.26469705826	1
0	7895	8046.281681319103	0
0	7925	8082.125173305818	1
0	7930	8088.918389786727	0
0	7940	8092.73652397203	1
0	7944	8095.966122531781	0
0	8026	8175.842205750481	1
0	8027	8178.069267776681	0
0	8037	8182.566677518289	1
0	8064	8210.253760129904	0
0	8082	8231.874418160177	1
0	8095	8240.776092383615	0
0	8153	8309.482264884226	1
0	8157	8317.732357386784	0
0	8164	8322.168226656541	1
0	8180	8340.013993768193	0
0	8203	8355.893679151581	1
0	8209	8362.452636549864	0
0	8334	8498.33313326472	1
0	8335	8500.490186379674	0
0	8437	8636.225639841358	1
0	8443	8642.824528232529	0
0	8499	8696.977513526327	1
0	8503	8702.660280538974	0
0	8531	8729.759067061831	1
0	8562	8746.191375089072	0
0	8617	8824.588152276946	1
0	8618	8831.965094952024	0
0	8684	8915.665045661272	1
0	8708	8940.693372772504	0
0	8712	8942.89739928729	1
0	8716	8948.321541557279	0
0	8725	8957.139431536454	1
0	8740	8974.713112554568	0
0	8770	9018.84758434387	1
0	8773	9025.27803264603	0
0	8783	9029.544746304969	1
0	8795	9056.001525371428	0
0	8822	9090.210257687212	1
0	8868	9141.156379213637	0
0	8880	9164.376251622906	1
0	8883	9176.537103241264	0
0	8923	9206.649341905412	1
0	8938	9213.589910822977	0
0	8962	9236.313672287491	1
0	8978	9241.492284368584	0
0	9033	9301.511602116009	1
0	9034	9307.144682852726	0
0	9054	9333.865829967792	1
0	9055	9334.522115238745	0
0	9069	9363.22785684338	1
0	9073	9370.592345157181	0
0	9082	9376.592940281981	1
0	9085	9383.476021167793	0
0	9127	9446.123638005057	1
0	9135	9461.386361214795	0
0	9241	9585.057491596156	1
0	9253	9595.049909150838	0
0	9316	9670.869272243904	1
0	9317	9674.089675982802	0
0	9342	9697.75717525293	1
0	9352	9705.167355015319	0
0	9361	9714.334581875206	1
0	9373	9721.644583645188	0
0	9398	9740.655787067755	1
0	9399	9741.181537610089	0
0	9505	9826.536135825412	1
0	9506	9827.635883872754	0
0	9518	9838.783019067865	1
0	9529	9846.879919519822	0
0	9535	9849.857092057272	1
0	9541	9862.393947244409	0
0	9548	9866.970538440791	1
0	9549	9869.876680126151	0
0	9636	9976.143415504584	1
0	9663	10028.76072728062	0
0	9677	10036.853780106863	1
0	9683	10041.303508111709	0
0	9692	10045.42608885018	1
0	9698	10049.063099869465	0
0	9707	10058.959206603852	1
0	9720	10073.020829717201	0
0	9832	10206.191128161607	1
0	9844	10228.564565584893	0
0	9853	10238.522227170345	1
0	9854	10238.877724636331	0
0	9907	10284.632589527434	1
0	9912	10288.275191201271	0
0	9954	10320.187353001637	1
0	9958	10328.782408005029	0
0	10036	10394.214027126911	1
0	10048	10399.989493410483	0
0	10152	10516.216170790978	1
0	10169	10532.096152401749	0
0	10180	10537.421960765656	1
0	10181	10539.52865091358	0
0	10217	10584.210498074387	1
0	10221	10587.520285350971	0
0	10277	10667.454391627343	1
0	10304	10680.357410200703	0
0	10342	10704.459738021134	1
0	10348	10706.41768701505	0
0	10372	10728.913491233473	1
0	10381	10732.897873082284	0
0	10387	10738.153702511964	1
0	10391	10748.753969884381	0
0	10428	10785.781383431287	1
0	10439	10800.516535639824	0
0	10458	10812.386097266618	1
0	10484	10836.921508976076	0
0	10490	10844.505145385678	1
0	10512	10863.231687923087	0
0	10516	10864.340498752726	1
0	10528	10869.636570206613	0
0	10574	10896.880148412372	1
0	10578	10899.765794007981	0
0	10604	10934.821138691185	1
0	10625	10959.15000474092	0
0	10690	11064.59581077542	1
0	10691	11065.231419956844	0
0	10795	11239.529428763504	1
0	10804	11256.252896075247	0
0	10915	11344.391091296861	1
0	10924	11349.952715395259	0
0	10930	11351.437649638941	1
0	10933	11357.727313550773	0
0	11065	11524.549792545748	1
0	11069	11527.243017293095	0
0	11097	11574.663238335467	1
0	11103	11578.215407349505	0
0	11187	11659.180547728199	1
0	11230	11711.062223045233	0
0	11265	11743.788178342647	1
0	11266	11745.240777433204	0
0	11284	11767.74806711696	1
0	11295	11776.643928603931	0
0	11299	11779.979745212655	1
0	11303	11780.386255004173	0
0	11329	11804.033229662942	1
0	11330	11805.57930466295	0
0	11366	11832.328273760919	1
0	11376	11837.370601905645	0
0	11383	11838.265921376332	1
0	11384	11839.525640777761	0
0	11426	11883.500217749231	1
0	11434	11886.608361275444	0
0	11443	11888.558826840723	1
0	11456	11904.843927336863	0
0	11460	11908.406377744079	1
0	11461	11911.232549306291	0
0	11499	11956.665378523398	1
0	11511	11963.028779284831	0
0	11523	11971.588263431398	1
0	11532	11978.961741819028	0
0	11536	11986.428073337881	1
0	11545	11993.132179507489	0
0	11564	12008.701297149451	1
0	11577	12029.366452420198	0
0	11581	12031.60954997443	1
0	11598	12048.941577683771	0
0	11680	12156.124360025282	1
0	11695	12172.754365431725	0
0	11701	12182.379005882075	1
0	11705	12186.322592837202	0
0	11712	12190.896265116851	1
0	11715	12196.92221317706	0
0	11892	12471.941872945404	1
0	11896	12473.913708698042	0
0	11941	12510.462505494829	1
0	11942	12519.624207872039	0
0	12083	12665.276265724459	1
0	12093	12667.742065366162	0
0	12118	12691.762505102468	1
0	12124	12693.521360487363	0
0	12133	12699.408179228114	1
0	12137	12702.851406700457	0
0	12176	12734.023459087348	1
0	12192	12742.050436533534	0
0	12196	12743.481350892379	1
0	12203	12754.21772424919	0
0	12215	12766.766606515017	1
0	12225	12772.397804728292	0
0	12269	12810.379661652309	1
0	12290	12826.899083390164	0
0	12301	12835.889389137055	1
0	12305	12839.96454232238	0
0	12394	12910.677626849338	1
0	12419	12923.057939503025	0
0	12463	12973.50289837988	1
0	12464	12982.053382303509	0
0	12491	13005.12506840126	1
0	12492	13005.645409367343	0
0	12519	13030.829030562726	1
0	12520	13032.454248345853	0
0	12549	13049.338958801863	1
0	12563	13056.597232828482	0
0	12590	13070.354638897339	1
0	12601	13080.837280157859	0
0	12607	13086.615456472069	1
0	12618	13092.925948646765	0
0	12633	13109.922012454224	1
0	12649	13134.141511186776	0
0	12719	13202.070919632831	1
0	12726	13203.973407352066	0
0	12730	13205.060450523723	1
0	12738	13212.928599997786	0
0	12745	13215.908585565087	1
0	12746	13217.106113989825	0
0	12809	13277.795241462907	1
0	12846	13321.435598478262	0
0	12850	13321.52505358126	1
0	12851	13323.695355046597	0
0	12876	13365.839992854682	1
0	12877	13368.445311437542	0
0	12902	13387.254492140161	1
0	12911	13396.305793838825	0
0	12921	13400.215535925402	1
0	12934	13419.102059878063	0
0	12981	13477.094771820244	1
0	12988	13485.606226118853	0
0	13007	13494.164819495739	1
0	13050	13529.546080073063	0
0	13117	13599.879645560275	1
0	13134	13608.219544008779	0
0	13145	13615.634927280181	1
0	13159	13633.943139818478	0
0	13287	13739.885090264298	1
0	13288	13744.68908160985	0
0	13306	13771.842261824761	1
0	13307	13775.16649714228	0
0	13405	13882.717252007201	1
0	13422	13897.818741073947	0
0	13444	13933.109658912959	1
0	13450	13937.158365755355	0
0	13485	13985.54515510013	1
0	13486	13987.176327605911	0
0	13500	13994.323817726194	1
0	13501	13994.994463879109	0
0	13575	14073.855819277822	1
0	13585	14095.47001068076	0
0	13609	14117.226827978495	1
0	13610	14128.030031805539	0
0	13620	14131.363121084079	1
0	13623	14137.485082804161	0
0	13680	14216.768877232002	1
0	13681	14216.875692587689	0
0	13721	14263.519619959924	1
0	13722	14266.53795482836	0
0	13751	14298.325095410822	1
0	13758	14301.659891599271	0
0	13783	14320.885556955346	1
0	13784	14321.272739501961	0
0	13837	14381.669767740418	1
0	13838	14382.432549789186	0
0	13914	14478.501518415182	1
0	13927	14497.561051746705	0
0	13931	14497.803169204464	1
0	13932	14497.969456985974	0
0	13957	14522.798780202493	1
0	13958	14523.010817220467	0
0	13985	14546.988828576022	1
0	13988	14550.226707901567	0
0	14032	14605.632133496826	1
0	14038	14608.292170798242	0
0	14045	14609.855313181714	1
0	14048	14611.748396326752	0
0	14062	14619.914818278114	1
0	14068	14626.996517959486	0
0	14077	14628.986266084093	1
0	14084	14632.899968996585	0
0	14090	14633.498286763216	1
0	14106	14644.062593421524	0
0	14112	14647.14434555107	1
0	14126	14664.609513246231	0
0	14155	14709.402439310613	1
0	14168	14726.523672752211	0
0	14172	14731.451460480679	1
0	14203	14765.744412333959	0
0	14207	14768.875310016811	1
0	14213	14773.03759361242	0
0	14224	14778.951016956907	1
0	14227	14779.79295326414	0
0	14329	14915.301719705759	1
0	14348	14926.650381686642	0
0	14355	14928.327697732849	1
0	14356	14929.549319878844	0
0	14424	14979.913604376431	1
0	14433	14996.163845997993	0
0	14495	15054.572385383742	1
0	14504	15069.852881540844	0
0	14510	15083.376958565117	1
0	14527	15096.192595619445	0
0	14564	15140.199355831394	1
0	14572	15148.34820351297	0
0	14583	15156.552997639132	1
0	14594	15172.105677984147	0
0	14598	15173.328199232067	1
0	14599	15174.160687143815	0
0	14630	15207.997490457121	1
0	14631	15208.553491313644	0
0	14699	15271.302200566893	1
0	14703	15287.866212967761	0
0	14710	15290.839807776657	1
0	14726	15301.212722281068	0
0	14742	15316.07159579734	1
0	14749	15319.887538630413	0
0	14770	15347.330432338889	1
0	14786	15367.443069265251	0
0	14796	15377.280419460761	1
0	14810	15386.546895381499	0
0	14822	15389.417347063735	1
0	14830	15404.588819100298	0
0	14955	15569.383373309124	1
0	14984	15596.33549257924	0
0	14994	15598.355201179507	1
0	15004	15609.89351424192	0
0	15058	15659.21115565717	1
0	15059	15662.40150092468	0
0	15191	15848.702184657056	1
0	15201	15856.500887746122	0
0	15234	15890.189716935031	1
0	15248	15906.948233356514	0
0	15275	15936.401038898813	1
0	15283	15945.279991789192	0
0	15378	16055.492774952117	1
0	15379	16064.60630781517	0
0	15413	16118.316320571364	1
0	15427	16133.561393906948	0
0	15533	16256.362408231994	1
0	15550	16270.59594449461	0
0	15557	16274.151460532976	1
0	15572	16287.548771569557	0
0	15576	16287.700822479245	1
0	15587	16300.006481341833	0
0	15591	16304.72292242147	1
0	15615	16337.249448014385	0
0	15621	16346.408978133946	1
0	15640	16359.812700906495	0
0	15654	16371.17716125593	1
0	15658	16373.911449011817	0
0	15665	16376.720695167097	1
0	15669	16377.579575967854	0
0	15695	16391.888247857101	1
0	15704	16403.026786566851	0
0	15725	16417.586438821938	1
0	15735	16422.234178895108	0
0	15777	16458.123579712993	1
0	15780	16465.070974008739	0
0	15811	16509.873556809796	1
0	15817	16517.012296079583	0
0	15871	16606.397060322886	1
0	15872	16611.403350174006	0
0	15882	16613.427249312905	1
0	15950	16706.045105922867	0
0	15958	16707.138813513607	1
0	15974	16715.336311221829	0
0	16081	16842.435740870185	1
0	16097	16847.82035788198	0
0	16118	16861.020661406448	1
0	16119	16865.586363746382	0
0	16148	16880.941494831856	1
0	16151	16884.273005336854	0
0	16180	16901.858742518347	1
0	16184	16908.169175174802	0
0	16204	16931.702827635784	1
0	16212	16940.280862200842	0
0	16294	17022.863561982693	1
0	16295	17033.550524459307	0
0	16337	17068.345795114585	1
0	16338	17069.162398941262	0
0	16350	17073.742526509883	1
0	16397	17123.22578678448	0
0	16466	17187.352370336256	1
0	16467	17188.679518238294	0
0	16539	17287.084321371116	1
0	16540	17287.386300544654	0
0	16578	17348.694583389437	1
0	16594	17359.755403327902	0
0	16606	17369.730282788477	1
0	16617	17378.998957733718	0
0	16623	17381.889255331364	1
0	16624	17385.204161132631	0
0	16709	17474.159522532077	1
0	16718	17483.171309021369	0
0	16758	17536.580359103242	1
0	16778	17554.604246937342	0
0	16782	17558.739512882531	1
0	16804	17572.504638660343	0
0	16808	17573.686947186411	1
0	16814	17575.361796688181	0
0	16823	17580.385419803452	1
0	16845	17592.082365380544	0
0	16853	17595.514727515357	1
0	16860	17600.807253970516	0
0	16894	17641.016382007104	1
0	16905	17654.03261450992	0
0	16909	17655.696999052257	1
0	16913	17658.753379226262	0
0	16933	17674.714486294774	1
0	16934	17675.823389142677	0
0	16961	17705.45782986984	1
0	16979	17732.56580148209	0
0	17038	17805.667692549073	1
0	17114	17871.586464448385	0
0	17121	17875.068237917612	1
0	17129	17888.413855288889	0
0	17190	17944.483708587815	1
0	17201	17950.497791657254	0
0	17304	18044.709392788062	1
0	17310	18057.879685573058	0
0	17343	18100.150443613915	1
0	17351	18107.154469484466	0
0	17364	18116.051485121638	1
0	17370	18124.983270519477	0
0	17407	18170.515162165423	1
0	17411	18174.989404979238	0
0	17433	18185.038353577135	1
0	17479	18223.797946867301	0
0	17487	18228.100182813638	1
0	17493	18232.790982693919	0
0	17532	18278.073085481759	1
0	17533	18279.527429153081	0
0	17543	18282.501008651699	1
0	17553	18291.973273505514	0
0	17577	18305.691022523664	1
0	17588	18311.438096028262	0
0	17607	18341.920326111002	1
0	17608	18342.294984092752	0
0	17620	18358.521364286723	1
0	17621	18364.372944031378	0
0	17648	18382.147829087429	1
0	17649	18383.366312221647	0
0	17693	18435.520394695401	1
0	17702	18440.53779170274	0
0	17706	18442.636432043233	1
0	17730	18457.667223347234	0
0	17736	18458.32742565048	1
0	17745	18467.268042365976	0
0	17854	18576.83572751464	1
0	17887	18609.378894474955	0
0	17930	18658.12342593933	1
0	17948	18680.80610174813	0
0	18005	18742.261394028111	1
0	18012	18750.455825572892	0
0	18065	18786.604864226332	1
0	18066	18787.970981226052	0
0	18087	18803.787605369567	1
0	18106	18813.747897341603	0
0	18128	18836.236462164186	1
0	18144	18851.281785581516	0
0	18214	18923.183712917705	1
0	18215	18926.016668831744	0
0	18227	18937.896080792307	1
0	18236	18948.043877772651	0
0	18240	18951.105658052091	1
0	18248	18956.53147025664	0
0	18302	19007.188379813509	1
0	18310	19012.026277324143	0
0	18349	19100.389292931866	1
0	18384	19122.2079222629	0
0	18403	19140.873312876094	1
0	18407	19145.433981142082	0
0	18440	19169.821711300209	1
0	18445	19179.871545380336	0
0	18528	19283.065067946371	1
0	18529	19285.991062232439	0
0	18612	19344.183290434895	1
0	18629	19353.473773026055	0
0	18767	19474.028962932946	1
0	18773	19480.028739812602	0
0	18810	19510.089289655042	1
0	18825	19519.010763518519	0
0	18832	19523.042061277059	1
0	18835	19526.329304030648	0
0	18883	19560.04082819439	1
0	18887	19570.412640378774	0
0	18995	19723.179490870543	1
0	19000	19726.835238782494	0
0	19038	19753.42522905747	1
0	19068	19778.395459775509	0
0	19188	19907.217846800215	1
0	19197	19913.458072743336	0
0	19201	19914.39419217585	1
0	19202	19916.353349287552	0
0	19244	19947.308530042934	1
0	19250	19951.247649857393	0
0	19306	20024.306366573709	1
0	19319	20038.882989561131	0
0	19323	20041.739209543649	1
0	19336	20052.626141809605	0
0	19362	20076.172471620431	1
0	19363	20078.894102689448	0
0	19422	20142.381868521029	1
0	19429	20149.301988225708	0
0	19433	20150.9075215617	1
0	19437	20154.663542848363	0
0	19472	20191.419713255065	1
0	19480	20199.664456377156	0
0	19489	20203.718609620692	1
0	19490	20209.014052684954	0
0	19504	20226.474637356262	1
0	19515	20244.059163513744	0
0	19521	20246.628945687115	1
0	19527	20253.695617966563	0
0	19534	20255.068604254186	1
0	19555	20264.521788028462	0
0	19637	20357.71217467158	1
0	19658	20387.539087218522	0
0	19708	20432.907469665042	1
0	19709	20434.472539229207	0
0	19854	20600.153039440003	1
0	19861	20606.252438930951	0
0	19869	20611.191469285691	1
0	19873	20620.860589238103	0
0	19899	20649.269451048265	1
0	19910	20657.257352387166	0
0	19914	20657.955760914049	1
0	19915	20658.327412009745	0
0	19963	20716.846808927098	1
0	19964	20717.493743081828	0
0	20017	20768.666276190769	1
0	20040	20797.201920411299	0
0	20047	20798.630467965162	1
0	20048	20798.735239938572	0
0	20060	20802.59152499971	1
0	20069	20812.777731149375	0
0	20073	20816.609636203879	1
0	20104	20849.885701490243	0
0	20140	20873.801312887458	1
0	20168	20888.666897551109	0
0	20284	21035.927252785659	1
0	20288	21040.257801240979	0
0	20376	21129.225763554192	1
0	20391	21136.367279636921	0
0	20400	21139.583889235392	1
0	20411	21149.129729736118	0
0	20415	21152.50038462449	1
0	20435	21165.232680889672	0
0	20441	21172.186862720728	1
0	20444	21177.044829819516	0
0	20486	21213.595030440095	1
0	20502	21225.862414035012	0
0	20514	21237.726767000221	1
0	20541	21274.397734009953	0
0	20596	21353.257466921081	1
0	20597	21356.716410052293	0
0	20626	21398.711333275329	1
0	20633	21403.946262273652	0
0	20770	21538.285485676683	1
0	20771	21540.823873452134	0
0	20800	21558.721694140851	1
0	20801	21560.197048429543	0
0	20813	21568.202082185429	1
0	20823	21576.170907697081	0
0	20835	21585.450562657741	1
0	20854	21613.430882811115	0
0	20889	21636.32699898858	1
0	20937	21676.32516493255	0
0	20941	21679.839903314505	1
0	20966	21698.625712633141	0
0	21004	21719.834391270878	1
0	21005	21719.89806511817	0
0	21017	21732.297227694296	1
0	21030	21740.642701246895	0
0	21036	21750.837864734405	1
0	21037	21752.487362980565	0
0	21062	21764.941669522597	1
0	21072	21770.455582971933	0
0	21163	21871.190882157161	1
0	21212	21918.937200104137	0
0	21329	22062.355785407346	1
0	21343	22084.487836767622	0
0	21396	22140.536185447348	1
0	21402	22151.430743418985	0
0	21424	22161.464000567301	1
0	21440	22174.491831166418	0
0	21467	22216.523066730849	1
0	21478	22221.002706994232	0
0	21540	22277.499807405549	1
0	21541	22277.504332479591	0
0	21632	22397.02843290653	1
0	21641	22407.317054980375	0
0	21887	22669.047718946907	1
0	21906	22688.898943788384	0
0	21991	22773.664438898522	1
0	22006	22783.79675565782	0
0	22013	22786.017427690724	1
0	22054	22806.198435210024	0
0	22069	22820.557521755771	1
0	22079	22833.683939053089	0
0	22119	22885.78307957986	1
0	22159	22906.472355779791	0
0	22212	22961.654236030116	1
0	22213	22961.991762779741	0
0	22330	23083.347497047693	1
0	22340	23087.196845476792	0
0	22347	23088.872536282822	1
0	22374	23119.774730949335	0
0	22433	23189.344652835644	1
0	22440	23196.467113222842	0
0	22474	23220.444262800899	1
0	22489	23235.074827372551	0
0	22493	23235.280185557235	1
0	22518	23258.609036854962	0
0	22575	23312.858713479748	1
0	22581	23317.052662339108	0
0	22603	23352.821941955385	1
0	22607	23358.93670289152	0
0	22629	23374.069983866579	1
0	22630	23374.659194016991	0
0	22766	23545.706723925293	1
0	22783	23559.039004299353	0
0	22867	23648.543048026633	1
0	22875	23654.583601761225	0
0	22959	23789.539688420621	1
0	22968	23816.628974432544	0
0	22972	23819.896124762802	1
0	22975	23826.213725858216	0
0	23077	23979.438094606605	1
0	23078	23979.556854627852	0
0	23208	24102.875581682121	1
0	23221	24109.894446626336	0
0	23225	24111.646303932768	1
0	23250	24141.340397640123	0
0	23262	24147.799135419845	1
0	23279	24173.430555805616	0
0	23283	24176.128820269298	1
0	23284	24190.268802744352	0
0	23298	24207.423382463456	1
0	23310	24219.89143708969	0
0	23326	24234.601309390434	1
0	23339	24244.08504954546	0
0	23348	24249.212693168953	1
0	23368	24263.225929924414	0
0	23374	24266.489530056666	1
0	23403	24285.634114362121	0
0	23407	24286.775420514161	1
0	23453	24342.116827785065	0
0	23525	24424.214453942454	1
0	23526	24432.759002797379	0
0	23551	24466.475822005924	1
0	23557	24473.591436212509	0
0	23564	24478.403404703965	1
0	23571	24481.89576272316	0
0	23577	24487.432457510129	1
0	23600	24508.363328614276	0
0	23607	24512.064609568958	1
0	23608	24512.604829652466	0
0	23650	24560.210141289082	1
0	23690	24590.875127428339	0
0	23704	24598.382462630802	1
0	23725	24631.36614655975	0
0	23732	24641.856408744643	1
0	23756	24672.03209734182	0
0	23762	24683.40623814096	1
0	23788	24707.691082952095	0
0	23797	24717.0703863533	1
0	23801	24719.0113283414	0
0	23812	24725.86370937834	1
0	23823	24745.097606717043	0
0	23842	24772.978040060885	1
0	23851	24792.266197898573	0
0	23930	24871.993042692746	1
0	23950	24898.240802497833	0
0	23954	24904.014212463625	1
0	23955	24904.032789086549	0
0	23967	24921.507570890841	1
0	23984	24934.044732184899	0
0	23999	24944.917608350739	1
0	24006	24954.346476341878	0
0	24010	24954.528724938172	1
0	24019	24960.147761323497	0
0	24036	24975.509593590224	1
0	24040	24977.748316035711	0
0	24053	24982.717188814159	1
0	24072	25019.515612532342	0
0	24085	25033.368173241153	1
0	24104	25056.568997360297	0
0	24291	25317.974864897674	1
0	24292	25320.792518128649	0
0	24306	25332.81813090693	1
0	24307	25333.937184991662	0
0	24319	25336.134264617552	1
0	24322	25346.563792167866	0
0	24334	25356.258446322063	1
0	24335	25357.467798429317	0
0	24347	25362.051956244848	1
0	24356	25365.134595452958	0
0	24360	25366.711330852659	1
0	24363	25370.779072121679	0
0	24409	25444.733057425317	1
0	24419	25449.564464635523	0
0	24510	25534.637908468885	1
0	24520	25541.298661960061	0
0	24530	25550.184447394067	1
0	24533	25551.781509344461	0
0	24562	25586.132986611061	1