version 2
run MM11_3_shortest_queue-0-20151213-20:38:57-29790
attr configname MM11_3_shortest_queue
attr datetime 20151213-20:38:57
attr experiment MM11_3_shortest_queue
attr inifile omnetpp.ini
attr iterationvars ""
attr iterationvars2 $repetition=0
attr measurement ""
attr network MM11_3
attr processid 29790
attr repetition 0
attr replication #0
attr resultdir results
attr runnumber 0
attr seedset 1

vector 0  MM11_3.queue1  queueLength:vector  ETV
attr interpolationmode  sample-hold
attr title  "queue length, vector"
vector 1  MM11_3.queue2  queueLength:vector  ETV
attr interpolationmode  sample-hold
attr title  "queue length, vector"
vector 2  MM11_3.queue3  queueLength:vector  ETV
attr interpolationmode  sample-hold
attr title  "queue length, vector"
vector 3  MM11_3.snk1  lifeTime:vector  ETV
attr interpolationmode  none
attr title  "lifetime of arrived jobs, vector"
attr unit  s
0	0	0	0
0	16	46.229585530164	1
0	17	49.144170105757	0
0	36	87.301777597531	1
0	37	89.087156596671	0
0	41	92.841244326759	1
0	42	94.141681921387	0
0	56	117.792938702763	1
0	65	127.472639845551	0
0	76	136.999786932757	1
0	77	144.278298856004	0
0	81	149.264619333863	1
0	82	149.67920935389	0
0	86	152.319735388904	1
0	96	157.859282467689	0
0	100	164.530855963356	1
0	101	170.446054579441	0
0	107	181.781991399786	1
0	115	186.679268171226	0
0	119	189.555702024577	1
0	125	207.58543740082	0
0	141	221.261753551543	1
0	142	221.528518698718	0
0	146	221.567106642358	1
0	167	242.57754854502	0
0	173	245.577740565552	1
0	174	245.997236709749	0
0	178	246.344196587336	1
0	184	257.596825392963	0
0	199	269.922814912551	1
0	200	272.770914841697	0
0	214	300.949891625339	1
0	215	305.21262108709	0
0	224	309.280758048937	1
0	225	309.497947414065	0
0	229	312.250829853858	1
0	230	315.832372992963	0
0	239	325.951101194045	1
0	263	347.581810935654	0
0	274	360.324008526832	1
0	281	365.72189728718	0
0	302	380.53469047636	1
0	306	387.618770520744	0
0	310	398.179824194526	1
0	311	399.473557908202	0
0	317	401.576633312982	1
0	321	404.820972420398	0
0	329	409.084035759253	1
0	330	412.497447363959	0
0	339	418.151090316621	1
0	340	430.255795154861	0
0	349	437.032650101846	1
0	358	454.083038980106	0
0	364	455.580707062655	1
0	381	476.351867839741	0
0	385	477.575822995491	1
0	386	480.625384538635	0
0	390	481.807414588253	1
0	399	494.520865128213	0
0	405	504.099815680797	1
0	406	504.293812361493	0
0	419	513.195619283127	1
0	429	525.456961702449	0
0	433	526.754522616916	1
0	465	558.935437745031	0
0	471	562.615821661343	1
0	475	564.180235333509	0
0	481	571.165274305683	1
0	504	587.549880484918	0
0	524	609.32692948164	1
0	525	611.832302296686	0
0	531	614.209258308948	1
0	538	618.132011015264	0
0	542	624.765528982755	1
0	548	629.872815645162	0
0	561	659.125315548591	1
0	562	671.965471475601	0
0	566	672.610530431	1
0	567	674.096860082022	0
0	571	678.577643082649	1
0	578	680.338884658246	0
0	582	683.777117533366	1
0	590	694.358090557767	0
0	594	697.768019157728	1
0	613	701.67409944553	0
0	617	703.886386221472	1
0	623	704.500528282289	0
0	629	706.128495636334	1
0	635	712.24043680381	0
0	650	728.6413679752	1
0	654	730.584675064099	0
0	658	733.528020542707	1
0	692	765.516402417561	0
0	698	773.086547699462	1
0	702	779.454546852522	0
0	706	779.940351291581	1
0	727	785.047397445158	0
0	731	796.204064461425	1
0	735	800.278094406499	0
0	744	806.374640410547	1
0	761	812.895479741642	0
0	779	828.938095512051	1
0	780	829.134520064974	0
0	789	836.834817914517	1
0	815	863.669247467669	0
0	819	864.531561036327	1
0	831	881.329047639092	0
0	835	881.918787932127	1
0	836	882.054992686625	0
0	840	882.121249748976	1
0	841	888.717029211183	0
0	847	890.527970272451	1
0	854	898.039438321391	0
0	858	899.680878455657	1
0	865	905.628600427057	0
0	876	924.44999668089	1
0	880	929.167488793628	0
0	884	929.667583441965	1
0	918	953.989835352857	0
0	941	966.377139039813	1
0	962	992.040651163679	0
0	968	998.187191643773	1
0	973	1005.323395274471	0
0	977	1005.583145572646	1
0	994	1029.163066916247	0
0	998	1029.299349554252	1
0	1005	1043.28269241145	0
0	1009	1044.18059816101	1
0	1020	1073.275301103378	0
0	1024	1073.57362300052	1
0	1025	1083.535414233256	0
0	1029	1086.615826959896	1
0	1033	1088.478503976803	0
0	1039	1091.687720641982	1
0	1046	1097.749758373221	0
0	1052	1108.827947196403	1
0	1059	1114.270015946613	0
0	1068	1119.290285546649	1
0	1078	1122.713248633767	0
0	1086	1127.007557661287	1
0	1090	1129.758609920452	0
0	1094	1130.193078995512	1
0	1131	1162.282226944033	0
0	1135	1163.12859355299	1
0	1155	1190.434264623262	0
0	1166	1200.561701026954	1
0	1170	1205.6556108903	0
0	1174	1210.699547472052	1
0	1181	1214.261040904648	0
0	1203	1244.543442789632	1
0	1207	1248.997320683507	0
0	1216	1255.549020825665	1
0	1245	1276.546737929717	0
0	1277	1309.30718164917	1
0	1278	1309.884226391262	0
0	1297	1345.255666289039	1
0	1298	1346.382977621306	0
0	1302	1350.200997741105	1
0	1303	1350.655331573487	0
0	1307	1351.882392957783	1
0	1317	1362.691194706034	0
0	1325	1372.439460484738	1
0	1326	1376.75952035391	0
0	1330	1378.427049713014	1
0	1354	1399.838366171147	0
0	1365	1402.736504541656	1
0	1374	1407.755811919429	0
0	1378	1409.464557113881	1
0	1382	1413.381340231504	0
0	1397	1429.700318664815	1
0	1398	1431.794210928219	0
0	1407	1434.585050185928	1
0	1408	1434.964957798271	0
0	1417	1453.174801960704	1
0	1421	1469.887593156717	0
0	1425	1472.502024502216	1
0	1437	1477.17728485152	0
0	1467	1507.880952157923	1
0	1468	1510.087808136288	0
0	1482	1522.589254817361	1
0	1493	1536.156160410571	0
0	1497	1537.154977674291	1
0	1512	1548.387109900197	0
0	1516	1548.512363630293	1
0	1539	1569.178457899176	0
0	1566	1599.330832750891	1
0	1588	1623.386728641555	0
0	1592	1623.678152877198	1
0	1597	1627.440644330806	0
0	1611	1639.3106005409	1
0	1633	1652.802656723231	0
0	1644	1662.617883568643	1
0	1645	1663.048251740488	0
0	1649	1663.73490771623	1
0	1657	1672.771737633674	0
0	1661	1673.365383222252	1
0	1668	1683.388873037859	0
0	1672	1684.678551663682	1
0	1673	1684.951808356241	0
0	1682	1689.597109811304	1
0	1702	1708.866697494091	0
0	1718	1726.423441953636	1
0	1741	1751.442816127754	0
0	1745	1752.58841247387	1
0	1754	1763.600469719237	0
0	1769	1777.706529756252	1
0	1796	1805.274415561818	0
0	1800	1805.405642942132	1
0	1808	1811.182961362918	0
0	1817	1819.600312558653	1
0	1834	1852.239312455443	0
0	1838	1856.471074509183	1
0	1844	1862.361944838825	0
0	1855	1887.675092355282	1
0	1856	1889.767264927812	0
0	1865	1899.018362470094	1
0	1866	1900.350512503289	0
0	1877	1910.807968810184	1
0	1885	1918.544288533517	0
0	1894	1932.41043526741	1
0	1898	1943.07894415386	0
0	1909	1956.376467689458	1
0	1910	1957.191330776605	0
0	1914	1957.421665081495	1
0	1930	1975.605664923485	0
0	1939	1990.291406118542	1
0	1940	1991.422049114313	0
0	1944	1991.811636149617	1
0	1948	2001.827952494157	0
0	1959	2011.739626869064	1
0	1983	2032.63695760443	0
0	1996	2035.133572393453	1
0	1997	2039.024583897349	0
0	2003	2042.062211233979	1
0	2011	2054.516529635219	0
0	2030	2081.672618910188	1
0	2037	2089.814253167902	0
0	2041	2090.888504163963	1
0	2083	2119.293001727755	0
0	2087	2123.532546181679	1
0	2096	2133.826380770654	0
0	2105	2144.431709565143	1
0	2116	2158.656671675017	0
0	2120	2159.232563065913	1
0	2121	2159.472969422499	0
0	2139	2173.940229147353	1
0	2140	2175.691032385231	0
0	2164	2220.515172337603	1
0	2168	2231.808343022466	0
0	2172	2232.571202520858	1
0	2176	2237.788290339877	0
0	2180	2240.223973969952	1
0	2187	2248.903199349519	0
0	2204	2279.449662437781	1
0	2238	2319.483980294818	0
0	2242	2323.30788019596	1
0	2253	2343.065173318191	0
0	2264	2355.045719768328	1
0	2265	2356.357415802207	0
0	2274	2368.916977029555	1
0	2275	2369.563970571856	0
0	2279	2374.87070363506	1
0	2283	2393.188329893847	0
0	2289	2401.923264853226	1
0	2290	2405.605853843912	0
0	2294	2408.762031652012	1
0	2298	2418.766092376015	0
0	2302	2422.299005407754	1
0	2303	2423.888921385026	0
0	2307	2426.562439415274	1
0	2308	2426.763751348044	0
0	2322	2446.029456031708	1
0	2323	2451.767085321704	0
0	2337	2471.036282208909	1
0	2347	2482.917093118394	0
0	2358	2506.697739391519	1
0	2362	2509.847859283458	0
0	2370	2515.984500868303	1
0	2386	2534.013556831134	0
0	2395	2540.498271376209	1
0	2403	2551.293737393192	0
0	2414	2555.669627806545	1
0	2421	2562.275054838135	0
0	2425	2569.279500105552	1
0	2440	2584.064750224755	0
0	2446	2586.505141047125	1
0	2455	2590.955969300176	0
0	2459	2592.879255309439	1
0	2460	2593.243600496064	0
0	2464	2594.745049991572	1
0	2473	2610.369645394218	0
0	2479	2611.212291867931	1
0	2485	2615.929179207441	0
0	2498	2638.390507401313	1
0	2510	2655.136103046865	0
0	2514	2655.635308092199	1
0	2518	2656.503548573913	0
0	2522	2658.703346340001	1
0	2523	2659.082318596244	0
0	2527	2660.906814033539	1
0	2536	2662.856586725856	0
0	2545	2670.026230594247	1
0	2572	2697.959436341093	0
0	2576	2699.400583232623	1
0	2590	2703.05359248879	0
0	2596	2707.024860379909	1
0	2610	2718.13316990228	0
0	2618	2729.207523738425	1
0	2647	2775.434714917625	0
0	2658	2778.497268757711	1
0	2659	2778.868087645409	0
0	2663	2781.502234533349	1
0	2676	2800.042096911512	0
0	2708	2834.111425054891	1
0	2712	2834.854880065818	0
0	2728	2863.777122179833	1
0	2729	2866.030336393645	0
0	2733	2866.938590084072	1
0	2739	2871.824737536218	0
0	2743	2874.749367714646	1
0	2750	2875.680942317364	0
0	2754	2877.274674739592	1
0	2755	2879.536873482957	0
0	2763	2902.803155981327	1
0	2785	2921.131117287001	0
0	2803	2935.014522671277	1
0	2807	2943.205996164674	0
0	2816	2951.557467109027	1
0	2822	2955.914276483206	0
0	2826	2961.609026873592	1
0	2837	2982.834643631655	0
0	2843	2991.351134187605	1
0	2844	2994.805844398712	0
0	2848	2997.15583205095	1
0	2858	3008.814260323565	0
0	2867	3010.894107367399	1
0	2871	3016.966092324411	0
0	2877	3022.744053813025	1
0	2880	3025.275584668151	0
0	2884	3027.616150682533	1
0	2885	3031.40234019533	0
0	2889	3033.215816833434	1
0	2905	3048.16106891876	0
0	2911	3049.899334889483	1
0	2924	3059.300250687997	0
0	2938	3071.765503811541	1
0	2942	3079.620815673281	0
0	2946	3080.715773408928	1
0	2949	3087.049987885408	0
0	2953	3088.959225187388	1
0	2960	3091.834463877569	0
0	2968	3100.601090152808	1
0	2972	3106.413850420792	0
0	2988	3129.269714023675	1
0	2989	3130.034643205461	0
0	2993	3130.474419866145	1
0	3005	3137.828070180141	0
0	3018	3143.782573304784	1
0	3043	3168.53956757739	0
0	3054	3184.283782879944	1
0	3063	3188.709676325632	0
0	3067	3189.670338484314	1
0	3070	3194.42438845507	0
0	3074	3194.480682775608	1
0	3095	3220.123312500724	0
0	3116	3243.797089447365	1
0	3117	3245.171947772775	0
0	3121	3246.753747340957	1
0	3122	3246.758992032262	0
0	3126	3248.747331438278	1
0	3140	3259.827131879939	0
0	3156	3283.125909513735	1
0	3157	3288.564029208689	0
0	3166	3301.079207396493	1
0	3167	3308.34016873158	0
0	3176	3314.483067795944	1
0	3182	3327.406235850472	0
0	3186	3331.245769586211	1
0	3187	3332.949856234986	0
0	3191	3344.225597711613	1
0	3198	3348.190802004196	0
0	3202	3355.594401783218	1
0	3219	3362.018701771042	0
0	3223	3362.406776517487	1
0	3241	3385.518718976865	0
0	3252	3388.32712095611	1
0	3256	3389.514666540384	0
0	3272	3404.532800091846	1
0	3287	3425.377451806925	0
0	3302	3446.932226464823	1
0	3306	3454.285905895245	0
0	3315	3460.838155781371	1
0	3321	3467.368284674391	0
0	3325	3468.977570194731	1
0	3332	3472.256195352896	0
0	3336	3475.308443393954	1
0	3344	3478.22212939822	0
0	3350	3483.647973257004	1
0	3357	3491.056445955777	0
0	3361	3496.034600741597	1
0	3392	3531.261210872594	0
0	3402	3549.604451459814	1
0	3418	3569.300906608564	0
0	3422	3575.648488584117	1
0	3423	3582.351769894431	0
0	3427	3584.550830251828	1
0	3433	3589.62271478154	0
0	3437	3594.429331644458	1
0	3444	3604.788091718205	0
0	3455	3617.327487838016	1
0	3456	3620.785698131559	0
0	3462	3621.87900533881	1
0	3468	3625.925101598696	0
0	3477	3635.568088830996	1
0	3481	3644.378106166632	0
0	3497	3653.364139729549	1
0	3498	3655.353613228895	0
0	3502	3655.567947500786	1
0	3503	3658.950360928503	0
0	3507	3667.606759680457	1
0	3529	3680.408611361982	0
0	3533	3681.413364142657	1
0	3578	3710.35694537163	0
0	3582	3710.394000763162	1
0	3588	3715.548680755422	0
0	3599	3728.80591844872	1
0	3612	3741.161447280811	0
0	3635	3766.930554626861	1
0	3641	3782.688636071347	0
0	3645	3795.962581758324	1
0	3661	3810.632783102158	0
0	3669	3818.093772007518	1
0	3689	3839.238255584221	0
0	3704	3862.362711850352	1
0	3711	3877.38228646785	0
0	3724	3890.909204408931	1
0	3767	3931.492661075346	0
0	3771	3937.805813820083	1
0	3772	3937.99089468432	0
0	3785	3950.659865735081	1
0	3791	3967.896663271673	0
0	3795	3968.789329646414	1
0	3799	3974.660451843586	0
0	3803	3979.906641259471	1
0	3804	3980.083236743474	0
0	3810	3984.599102946422	1
0	3822	3991.586448207569	0
0	3826	3992.063317211974	1
0	3842	4013.926454603128	0
0	3851	4015.992868151303	1
0	3865	4028.25994922586	0
0	3871	4031.043552454257	1
0	3874	4035.33403159714	0
0	3878	4038.890338354335	1
0	3905	4058.85659433683	0
0	3913	4060.292146647261	1
0	3914	4060.751320421175	0
0	3930	4085.929699881248	1
0	3969	4119.182767186413	0
0	3975	4123.467874725477	1
0	3995	4132.274526332844	0
0	4004	4137.931612829401	1
0	4022	4152.959284465062	0
0	4026	4153.805982450279	1
0	4041	4174.886411003418	0
0	4045	4176.670130918867	1
0	4059	4197.734358586893	0
0	4063	4198.04987113676	1
0	4066	4207.120518770664	0
0	4070	4211.783579045062	1
0	4087	4218.591835453803	0
0	4091	4221.148671633945	1
0	4094	4222.792975907428	0
0	4098	4225.048427823196	1
0	4108	4237.922636888353	0
0	4119	4246.79528132362	1
0	4125	4255.24974525211	0
0	4129	4255.57633437662	1
0	4150	4269.080640434005	0
0	4154	4270.840429960452	1
0	4155	4270.862062236474	0
0	4165	4273.035342230659	1
0	4174	4281.025317084603	0
0	4180	4285.519466494695	1
0	4184	4290.533846215249	0
0	4205	4307.355470922538	1
0	4217	4327.443629591853	0
0	4226	4336.667742994449	1
0	4235	4345.040954335265	0
0	4241	4351.775107731399	1
0	4249	4363.781264727794	0
0	4253	4369.137024358096	1
0	4254	4369.343664977118	0
0	4258	4372.588606883556	1
0	4267	4378.683515165418	0
0	4271	4379.639760687184	1
0	4279	4382.206746376938	0
0	4283	4390.514810558165	1
0	4284	4393.341925974896	0
0	4288	4398.917714682206	1
0	4291	4403.378784411834	0
0	4300	4405.615600721897	1
0	4304	4411.664341161306	0
0	4308	4427.221633198228	1
0	4323	4441.287156542578	0
0	4327	4444.148863281282	1
0	4335	4449.626481552527	0
0	4348	4461.359374510712	1
0	4366	4480.000346619831	0
0	4375	4490.744183736616	1
0	4436	4534.892200685848	0
0	4440	4535.604873980665	1
0	4445	4548.636049418284	0
0	4454	4559.318707075595	1
0	4458	4565.866478770223	0
0	4462	4566.610484063757	1
0	4479	4572.794169334181	0
0	4485	4574.017512869783	1
0	4488	4578.483721062821	0
0	4499	4595.086222404455	1
0	4500	4601.069036264425	0
0	4509	4616.784573607619	1
0	4513	4627.907125453279	0
0	4517	4629.290191053557	1
0	4536	4653.283520045867	0
0	4540	4653.633348021571	1
0	4541	4653.728623158618	0
0	4545	4671.461354415584	1
0	4558	4683.837779385735	0
0	4562	4684.909087976234	1
0	4594	4712.929498993855	0
0	4607	4734.955877482657	1
0	4624	4749.39742731734	0
0	4630	4751.706634056236	1
0	4631	4751.927568920095	0
0	4637	4753.99592324162	1
0	4640	4756.538403056774	0
0	4646	4760.712079764122	1
0	4647	4762.714023121058	0
0	4656	4770.44254505158	1
0	4657	4771.283467395513	0
0	4661	4773.42154799705	1
0	4662	4780.701221722755	0
0	4666	4784.279243049599	1
0	4670	4792.82204333767	0
0	4681	4799.788748175998	1
0	4685	4801.771070691535	0
0	4691	4807.076784469653	1
0	4703	4821.671911002793	0
0	4707	4823.988675763125	1
0	4737	4855.46619125097	0
0	4741	4858.935472684253	1
0	4756	4872.955102014831	0
0	4769	4879.28516864678	1
0	4786	4889.767978293074	0
0	4812	4904.10169164246	1
0	4816	4911.952904568111	0
0	4820	4913.831106139093	1
0	4823	4915.824633637949	0
0	4827	4917.456890016678	1
0	4828	4919.268543926069	0
0	4841	4951.59985053533	1
0	4845	4974.340606788238	0
0	4856	4988.416589423545	1
0	4870	5001.972662989881	0
0	4879	5010.372146324588	1
0	4888	5022.775174697189	0
0	4906	5040.685773326661	1
0	4907	5042.274089145835	0
0	4911	5042.285489224624	1
0	4915	5047.323410904571	0
0	4919	5051.02023389357	1
0	4920	5051.149656084198	0
0	4926	5052.26336557391	1
0	4930	5057.992601632091	0
0	4936	5067.499091535062	1
0	4988	5105.646219299971	0
0	4992	5107.223231708986	1
0	4995	5113.150736952007	0
0	4999	5113.361686946778	1
0	5008	5120.978099346576	0
0	5021	5131.35671187871	1
0	5038	5154.14716302124	0
0	5048	5164.912457287521	1
0	5049	5168.078649856069	0
0	5058	5175.272656283732	1
0	5064	5180.244137600271	0
0	5068	5181.915285830791	1
0	5093	5210.077609436084	0
0	5099	5211.425624380481	1
0	5109	5217.756499875516	0
0	5118	5222.507919618874	1
0	5124	5231.476856366772	0
0	5128	5231.775827304967	1
0	5143	5248.395481917614	0
0	5147	5249.371432491653	1
0	5159	5267.214542625349	0
0	5163	5270.314227855829	1
0	5164	5272.830025758245	0
0	5173	5285.973251101479	1
0	5189	5299.493025244417	0
0	5198	5302.0837263723	1
0	5207	5307.226752929257	0
0	5211	5307.266765961601	1
0	5221	5314.366942300913	0
0	5241	5333.685174776759	1
0	5248	5338.067901713156	0
0	5252	5339.818857321546	1
0	5263	5369.873414472728	0
0	5267	5373.218416269955	1
0	5276	5382.102291239981	0
0	5282	5386.884757502686	1
0	5283	5387.804420675163	0
0	5294	5409.035758150812	1
0	5311	5428.534082367603	0
0	5315	5431.52021560797	1
0	5325	5437.820926439879	0
0	5331	5441.544424367358	1
0	5332	5444.1851175831	0
0	5336	5446.131993707707	1
0	5337	5447.278165540592	0
0	5341	5454.558709068468	1
0	5350	5459.125082970717	0
0	5354	5466.476456931907	1
0	5355	5467.692800059076	0
0	5359	5471.292659369952	1
0	5365	5479.711672738787	0
0	5371	5484.14729149839	1
0	5375	5487.250294692125	0
0	5384	5503.760939695894	1
0	5401	5514.906847452727	0
0	5405	5518.04632782813	1
0	5426	5536.258133874767	0
0	5430	5536.354062188162	1
0	5457	5555.571226926034	0
0	5461	5558.191816844392	1
0	5468	5564.634194841186	0
0	5472	5564.646712259889	1
0	5473	5566.043100732785	0
0	5477	5567.044616757108	1
0	5478	5567.808655437065	0
0	5482	5570.235021154983	1
0	5491	5586.443735686367	0
0	5500	5602.920465327675	1
0	5508	5610.619174558964	0
0	5512	5612.016315479273	1
0	5524	5620.182603826163	0
0	5528	5625.938360554209	1
0	5529	5627.4137859672	0
0	5533	5629.763500152427	1
0	5536	5630.476680367255	0
0	5540	5630.832908167695	1
0	5555	5644.457350798471	0
0	5572	5663.259780211679	1
0	5582	5678.049738628503	0
0	5595	5686.024567596552	1
0	5596	5686.251350575372	0
0	5605	5695.314916795782	1
0	5609	5699.876253274738	0
0	5620	5710.039857906394	1
0	5624	5712.526562065776	0
0	5628	5720.672880124667	1
0	5638	5728.052469204054	0
0	5660	5767.755820349972	1
0	5661	5770.957623209059	0
0	5665	5771.720589568617	1
0	5684	5797.401261603732	0
0	5690	5799.176991641796	1
0	5691	5801.043844958565	0
0	5705	5823.471612610205	1
0	5706	5831.785005435104	0
0	5710	5840.495448034376	1
0	5717	5843.687221181856	0
0	5723	5859.304704229691	1
0	5729	5863.264953724314	0
0	5735	5870.536534234696	1
0	5745	5877.193729664028	0
0	5753	5881.993259217908	1
0	5760	5887.390077306158	0
0	5771	5894.587153099694	1
0	5772	5896.096498873972	0
0	5778	5899.266274771725	1
0	5789	5905.735584283418	0
0	5800	5932.088912401769	1
0	5817	5949.190895307131	0
0	5821	5950.836429994132	1
0	5824	5956.876858178574	0
0	5828	5959.286333863356	1
0	5834	5966.383762362246	0
0	5838	5968.369808920569	1
0	5852	5971.964072133207	0
0	5856	5974.135543210963	1
0	5863	5990.33769193986	0
0	5867	5990.577129188191	1
0	5873	5999.491503649539	0
0	5877	6000.933216896863	1
0	5895	6006.246736895057	0
0	5901	6008.617233192707	1
0	5907	6010.401937485905	0
0	5911	6012.056693884223	1
0	5920	6023.308752411901	0
0	5935	6037.439080474315	1
0	5944	6051.406651266447	0
0	5953	6057.266312171781	1
0	5954	6062.325428167507	0
0	5960	6070.457382284431	1
0	5972	6084.809467827411	0
0	5976	6094.745839488719	1
0	5982	6104.036781222789	0
0	5986	6104.702991039094	1
0	6005	6126.985028880585	0
0	6009	6132.241705659581	1
0	6010	6132.564954147706	0
0	6021	6139.852111987964	1
0	6027	6144.178538643154	0
0	6033	6145.308713851987	1
0	6042	6163.003351557222	0
0	6046	6163.339583410897	1
0	6070	6194.307768626504	0
0	6085	6221.897843717871	1
0	6123	6266.370020668832	0
0	6131	6283.20368044321	1
0	6148	6292.956283225545	0
0	6152	6294.802846945377	1
0	6174	6308.114098179264	0
0	6189	6325.625840951201	1
0	6190	6325.936487796949	0
0	6194	6326.6700007307	1
0	6195	6331.095248949471	0
0	6199	6332.457942635744	1
0	6252	6365.28816451378	0
0	6256	6365.713188915773	1
0	6266	6377.506294532151	0
0	6270	6387.367100406981	1
0	6274	6389.555675088618	0
0	6287	6400.838512152488	1
0	6312	6431.203741744381	0
0	6316	6431.205315191221	1
0	6317	6431.296907292399	0
0	6328	6444.434542276571	1
0	6332	6447.090159201763	0
0	6336	6447.314311311794	1
0	6351	6453.068998864309	0
0	6355	6456.134293498497	1
0	6367	6466.700087874382	0
0	6371	6466.854326377133	1
0	6379	6476.461746521469	0
0	6383	6477.130795501239	1
0	6392	6484.468608505967	0
0	6409	6506.335095852252	1
0	6410	6511.159928732165	0
0	6414	6516.459398529684	1
0	6415	6520.109800901076	0
0	6424	6535.497280194159	1
0	6436	6539.199537139357	0
0	6447	6544.091429930336	1
0	6454	6550.614565243526	0
0	6458	6551.293892837896	1
0	6498	6590.192490139008	0
0	6508	6601.17161630355	1
0	6521	6614.696339342842	0
0	6529	6620.806493976176	1
0	6534	6624.991793648148	0
0	6538	6625.263890640885	1
0	6569	6646.919798678432	0
0	6575	6647.493390347248	1
0	6576	6651.911618629623	0
0	6580	6655.311818548815	1
0	6617	6682.349616781054	0
0	6628	6689.924508808439	1
0	6645	6711.741306097234	0
0	6651	6714.731586425428	1
0	6655	6719.786799491991	0
0	6661	6730.587686832869	1
0	6662	6732.090134230816	0
0	6683	6760.684804575895	1
0	6718	6799.121739478485	0
0	6722	6802.014689623352	1
0	6731	6805.836532112464	0
0	6735	6808.263008971813	1
0	6743	6813.531811680382	0
0	6749	6818.876972834906	1
0	6753	6825.447975686118	0
0	6761	6827.663614421281	1
0	6773	6837.073186592	0
0	6777	6840.257353521669	1
0	6783	6849.49875859494	0
0	6787	6850.616135750079	1
0	6822	6888.416144951251	0
0	6826	6891.32716931576	1
0	6827	6891.498834430738	0
0	6836	6902.458244640164	1
0	6843	6907.576179191217	0
0	6849	6914.229250090025	1
0	6855	6923.720410294952	0
0	6864	6927.276745898821	1
0	6873	6941.161143958318	0
0	6877	6945.004123061753	1
0	6882	6955.643060515077	0
0	6886	6957.206456972452	1
0	6887	6961.176607788966	0
0	6891	6966.154310448913	1
0	6892	6975.539389759595	0
0	6896	6977.473223714136	1
0	6897	6985.438329698781	0
0	6901	6995.481295546337	1
0	6902	6998.880816773043	0
0	6911	7028.813647635803	1
0	6917	7031.399449371918	0
0	6926	7047.496913051425	1
0	6927	7048.663526074905	0
0	6936	7065.840454492429	1
0	6937	7067.781909729098	0
0	6946	7080.836594220301	1
0	6970	7101.926079583355	0
0	6974	7102.191974816723	1
0	6996	7117.844906177131	0
0	7002	7120.72207216715	1
0	7020	7137.289093386826	0
0	7024	7137.514841839636	1
0	7025	7138.345945721586	0
0	7033	7150.677868193534	1
0	7039	7157.488005430011	0
0	7043	7157.668471264915	1
0	7071	7187.840050486065	0
0	7079	7191.926491509938	1
0	7085	7201.300788728008	0
0	7091	7205.934094820705	1
0	7097	7210.520839405654	0
0	7108	7236.458437760667	1
0	7112	7247.621702988598	0
0	7128	7265.260851086728	1
0	7129	7268.765158298926	0
0	7133	7275.093800459432	1
0	7137	7293.451829056595	0
0	7141	7299.18407872455	1
0	7169	7320.65695439119	0
0	7173	7320.663719630615	1
0	7178	7325.057775927131	0
0	7182	7331.506158579626	1
0	7183	7331.538575798618	0
0	7187	7332.520899449964	1
0	7190	7334.799180266126	0
0	7194	7336.906847850956	1
0	7198	7341.790937307497	0
0	7207	7347.808239912752	1
0	7213	7359.259500533272	0
0	7217	7360.245184054557	1
0	7225	7375.423544040217	0
0	7251	7410.255477251753	1
0	7270	7445.269921060974	0
0	7281	7458.914912938814	1
0	7298	7472.801534637487	0
0	7311	7489.435532863772	1
0	7312	7489.594544973949	0
0	7321	7507.76052818567	1
0	7322	7508.911716419667	0
0	7326	7512.251028861485	1
0	7330	7520.656741337558	0
0	7334	7523.855439104531	1
0	7350	7541.317899044623	0
0	7356	7543.348071510913	1
0	7360	7548.578704079412	0
0	7366	7558.443362048023	1
0	7409	7590.009774858431	0
0	7418	7595.536534426284	1
0	7419	7597.050358034463	0
0	7423	7597.569514646821	1
0	7436	7605.979678010946	0
0	7440	7608.607238289856	1
0	7451	7613.813441711629	0
0	7455	7615.744920690818	1
0	7456	7617.196796671094	0
0	7460	7617.451366750554	1
0	7466	7618.626348836015	0
0	7470	7619.452237314775	1
0	7474	7634.965491341514	0
0	7487	7647.797809493818	1
0	7498	7665.882622990701	0
0	7502	7667.617509821012	1
0	7510	7685.154187660623	0
0	7514	7688.518955757592	1
0	7523	7698.280733433461	0
0	7527	7698.725665093034	1
0	7528	7701.423661361184	0
0	7532	7702.130025799222	1
0	7533	7709.606949721681	0
0	7537	7718.739799460474	1
0	7538	7722.425622965654	0
0	7542	7723.917165368893	1
0	7570	7760.195790482055	0
0	7592	7774.983568366789	1
0	7604	7790.812097693975	0
0	7608	7802.02529900855	1
0	7621	7830.985071252302	0
0	7625	7831.76869840592	1
0	7645	7848.213754907869	0
0	7649	7848.343624981117	1
0	7663	7870.154838461521	0
0	7667	7870.429566606944	1
0	7673	7875.206339546025	0
0	7681	7886.206423965244	1
0	7687	7893.887735144856	0
0	7691	7894.959990746464	1
0	7719	7912.245720598459	0
0	7736	7920.881851071034	1
0	7776	7953.235311549825	0
0	7782	7961.014700810732	1
0	7796	7976.998602303822	0
0	7812	7994.999681846991	1
0	7823	8012.612780844067	0
0	7827	8016.027395602819	1
0	7841	8035.391538348533	0
0	7845	8036.005514219959	1
0	7846	8037.393147373977	0
0	7852	8041.893530377746	1
0	7856	8043.890376960176	0
0	7872	8056.449739603109	1
0	7888	8072.974708937238	0
0	7892	8074.222610968108	1
0	7905	8086.520322173938	0
0	7922	8099.167587811895	1
0	7926	8105.311329410436	0
0	7932	8106.538632552007	1
0	7939	8116.7112466388	0
0	7943	8117.937957338795	1
0	7948	8127.683022365052	0
0	7952	8128.995127205838	1
0	7969	8144.367876428422	0
0	7973	8144.884466670084	1
0	7984	8154.662186004456	0
0	7988	8155.064758142155	1
0	7997	8173.645933894233	0
0	8010	8190.465758529813	1
0	8014	8199.16053540374	0
0	8018	8199.321769365972	1
0	8035	8209.104881169185	0
0	8045	8217.631891254188	1
0	8052	8234.792544710612	0
0	8068	8252.495206981363	1
0	8074	8256.388302138429	0
0	8083	8262.780817149464	1
0	8094	8279.566473847772	0
0	8112	8310.640134550783	1
0	8116	8320.461654948361	0
0	8122	8321.180697091626	1
0	8146	8333.507240112214	0
0	8152	8337.789725827522	1
0	8163	8351.804428320062	0
0	8178	8368.95387100584	1
0	8185	8377.284187179226	0
0	8189	8378.74397754075	1
0	8190	8378.957482242989	0
0	8194	8381.097681970428	1
0	8211	8401.503702546963	0
0	8215	8402.577380314959	1
0	8221	8405.688427439748	0
0	8227	8410.837253615874	1
0	8233	8414.160472158502	0
0	8242	8418.320052136538	1
0	8266	8441.380542594041	0
0	8281	8456.643214386649	1
0	8289	8469.663588303697	0
0	8293	8469.693994367651	1
0	8297	8473.655625888253	0
0	8301	8477.342667090734	1
0	8305	8484.165228765821	0
0	8314	8488.242717259908	1
0	8315	8490.836345960745	0
0	8319	8491.025506418796	1
0	8328	8506.199904867676	0
0	8332	8526.949734275727	1
0	8336	8533.150419882996	0
0	8340	8542.034921302147	1
0	8346	8545.665538630357	0
0	8350	8547.492610006084	1
0	8364	8555.48544807073	0
0	8368	8556.101150969824	1
0	8369	8560.1240285049	0
0	8378	8570.477183421436	1
0	8384	8589.937410684345	0
0	8388	8589.97454617478	1
0	8397	8599.444939162446	0
0	8403	8609.528850296164	1
0	8407	8613.326041376914	0
0	8418	8620.337872656737	1
0	8427	8634.264968475308	0
0	8433	8635.443843344611	1
0	8445	8646.669247199256	0
0	8459	8669.504059835693	1
0	8460	8669.599603408891	0
0	8464	8669.977864904451	1
0	8482	8679.533530134428	0
0	8486	8681.559515166982	1
0	8498	8694.597871975985	0
0	8509	8708.505428583697	1
0	8515	8712.312819098822	0
0	8519	8729.422172042723	1
0	8526	8731.689340646166	0
0	8556	8765.449285060663	1
0	8570	8792.074554004483	0
0	8574	8796.537402156494	1
0	8575	8799.736704791567	0
0	8588	8821.383853728197	1
0	8595	8830.602381024561	0
0	8599	8831.252022397024	1
0	8610	8849.869020725684	0
0	8614	8851.2762744584	1
0	8620	8859.165988859901	0
0	8624	8859.388435780254	1
0	8631	8866.145475895558	0
0	8639	8870.865626938557	1
0	8645	8881.15060183354	0
0	8649	8881.485566918196	1
0	8667	8907.542172830829	0
0	8681	8938.430188899307	1
0	8690	8945.494376438667	0
0	8694	8949.347010979005	1
0	8727	9000.675150455194	0
0	8731	9000.831456387699	1
0	8746	9023.973132285247	0
0	8750	9026.022252007087	1
0	8751	9027.466040905912	0
0	8762	9029.934378009029	1
0	8795	9074.429244035935	0
0	8808	9088.703388806753	1
0	8844	9119.267830059512	0
0	8863	9125.842102130988	1
0	8877	9130.490469225852	0
0	8881	9134.893179397735	1
0	8882	9137.745046907668	0
0	8886	9138.64305307766	1
0	8887	9138.898526772982	0
0	8898	9142.265098467363	1
0	8901	9143.31420455339	0
0	8910	9148.698259326619	1
0	8922	9157.982910726195	0
0	8934	9164.206731248814	1
0	8935	9168.797568675386	0
0	8939	9178.168172745731	1
0	8940	9180.179919945387	0
0	8949	9192.955169220346	1
0	8960	9211.804307618142	0
0	8964	9215.542986808725	1
0	8984	9250.092225973065	0
0	8988	9254.096254012326	1
0	9013	9279.903507342463	0
0	9017	9289.288511633127	1
0	9026	9298.028358045591	0
0	9030	9303.570640590589	1
0	9042	9316.991020603939	0
0	9050	9328.301128888364	1
0	9054	9332.825488356952	0
0	9058	9336.066769027186	1
0	9084	9366.942844437161	0
0	9088	9375.032238682073	1
0	9091	9376.94387598144	0
0	9104	9388.95047272435	1
0	9108	9391.294777121658	0
0	9121	9409.046185283203	1
0	9125	9418.521685266097	0
0	9131	9422.555669998535	1
0	9138	9428.428004981425	0
0	9151	9440.991191029291	1
0	9152	9443.790120336075	0
0	9171	9457.120261436776	1
0	9175	9463.342236553668	0
0	9179	9464.838704434484	1
0	9183	9465.721891089609	0
0	9187	9475.179057661792	1
0	9188	9478.572311321462	0
0	9204	9500.238731690723	1
0	9205	9500.511751456655	0
0	9209	9501.63034259709	1
0	9210	9503.32328162822	0
0	9216	9513.888313762237	1
0	9217	9514.79023715822	0
0	9221	9518.756754845961	1
0	9234	9527.063462331558	0
0	9238	9528.301840913923	1
0	9250	9542.266445920301	0
0	9254	9543.651004977282	1
0	9255	9545.183080609781	0
0	9264	9561.910624908314	1
0	9273	9572.141538645352	0
0	9277	9572.445720657621	1
0	9293	9588.923731532303	0
0	9297	9589.133285637827	1
0	9298	9594.165373267262	0
0	9304	9594.639803340707	1
0	9332	9614.939618562063	0
0	9336	9615.545423490892	1