version 2
run MMsKLCFS-0-20151205-17:31:35-3058
attr configname MMsKLCFS
attr datetime 20151205-17:31:35
attr experiment MMsKLCFS
attr inifile omnetpp.ini
attr iterationvars ""
attr iterationvars2 $repetition=0
attr measurement ""
attr network MMa
attr processid 3058
attr repetition 0
attr replication #0
attr resultdir results
attr runnumber 0
attr seedset 0

vector 1  MMa.pq1  queueLength:vector  ETV
attr interpolationmode  sample-hold
attr title  "queue length, vector"
vector 0  MMa.snk1  lifeTime:vector  ETV
attr interpolationmode  none
attr title  "lifetime of arrived jobs, vector"
attr unit  s
0	8	16.538680103301	12.559307580473
0	10	17.704405779954	9.232231314707
0	15	25.642206925439	7.872011399819
0	20	33.038407071745	5.510484866703
0	35	47.304335482693	10.381593006638
0	38	47.56296657685	5.755191968829
0	41	50.48789689111	4.488685768794
0	43	52.398987626334	6.107853158553
0	51	66.468659646992	22.235244220363
0	53	73.639668741804	7.526741133128
0	61	78.554657043652	15.68896117623
0	66	80.974610046134	0.73685355465
0	68	82.868312139302	8.394328529002
0	73	90.1912130741	0.911610261242
0	78	91.541748678061	0.20425588399
0	86	103.725937304894	25.982540858489
0	88	113.91463860826	15.057842586373
0	90	114.435431969997	17.874876634386
0	103	135.010788244684	20.403142579418
0	110	141.200082840951	12.423275964413
0	113	141.620656583763	16.052395570615
0	116	142.879400678143	2.357761321194
0	121	152.559472258053	15.712655007053
0	123	153.816018625008	38.452218691418
0	128	156.027754543017	1.547296805
0	130	158.318637970391	10.214318743492
0	141	170.074509923122	7.378272917559
0	146	173.435594730719	3.072803521525
0	153	175.158717608309	5.355657202278
0	156	181.249541840139	6.647260710638
1	0	0	0
1	31	45.999211122316	1
1	33	46.291134467781	2
1	34	47.304335482693	1
1	37	47.56296657685	0
1	101	128.776806876538	1
1	102	135.010788244684	0
1	106	136.846817251	1
1	108	140.521639356949	2
1	109	141.200082840951	1
1	112	141.620656583763	0
1	151	174.602281129501	1
1	152	175.158717608309	0
