version 2
run Test-0-20160110-22:07:38-11515
attr configname Test
attr datetime 20160110-22:07:38
attr experiment Test
attr inifile omnetpp.ini
attr iterationvars ""
attr iterationvars2 $repetition=0
attr measurement ""
attr network lab05.test_net
attr processid 11515
attr repetition 0
attr replication #0
attr resultdir results
attr runnumber 0
attr seedset 0

vector 0  test_net.queue  queueLength:vector  ETV
attr interpolationmode  sample-hold
attr title  "queue length, vector"
vector 1  test_net.sink  lifeTime:vector  ETV
attr interpolationmode  none
attr title  "lifetime of arrived jobs, vector"
attr unit  s
0	0	0	0
1	7	10	5
1	12	15	5
1	17	20	5
1	22	25	5
1	27	30	5
1	32	35	5
1	37	40	5
1	42	45	5
1	47	50	5
1	52	55	5
1	57	60	5
1	62	65	5
1	67	70	5
1	72	75	5
1	77	80	5
1	82	85	5
1	87	90	5
1	92	95	5
1	97	100	5
1	102	105	5
1	107	110	5
1	112	115	5
1	117	120	5
1	122	125	5
1	127	130	5
1	132	135	5
1	137	140	5
1	142	145	5
1	147	150	5
1	152	155	5
1	157	160	5
1	162	165	5
1	167	170	5
1	172	175	5
1	177	180	5
1	182	185	5
1	187	190	5
1	192	195	5
1	197	200	5
1	202	205	5
1	207	210	5
1	212	215	5
1	217	220	5
1	222	225	5
1	227	230	5
1	232	235	5
1	237	240	5
1	242	245	5
1	247	250	5
1	252	255	5
1	257	260	5
1	262	265	5
1	267	270	5
1	272	275	5
1	277	280	5
1	282	285	5
1	287	290	5
1	292	295	5
1	297	300	5
1	302	305	5
1	307	310	5
1	312	315	5
1	317	320	5
1	322	325	5
1	327	330	5
1	332	335	5
1	337	340	5
1	342	345	5
1	347	350	5
1	352	355	5
1	357	360	5
1	362	365	5
1	367	370	5
1	372	375	5
1	377	380	5
1	382	385	5
1	387	390	5
1	392	395	5
1	397	400	5
1	402	405	5
1	407	410	5
1	412	415	5
1	417	420	5
1	422	425	5
1	427	430	5
1	432	435	5
1	437	440	5
1	442	445	5
1	447	450	5
1	452	455	5
1	457	460	5
1	462	465	5
1	467	470	5
1	472	475	5
1	477	480	5
1	482	485	5
1	487	490	5
1	492	495	5
1	497	500	5
1	502	505	5
1	507	510	5
1	512	515	5
1	517	520	5
1	522	525	5
1	527	530	5
1	532	535	5
1	537	540	5
1	542	545	5
1	547	550	5
1	552	555	5
1	557	560	5
1	562	565	5
1	567	570	5
1	572	575	5
1	577	580	5
1	582	585	5
1	587	590	5
1	592	595	5
1	597	600	5
1	602	605	5
1	607	610	5
1	612	615	5
1	617	620	5
1	622	625	5
1	627	630	5
1	632	635	5
1	637	640	5
1	642	645	5
1	647	650	5
1	652	655	5
1	657	660	5
1	662	665	5
1	667	670	5
1	672	675	5
1	677	680	5
1	682	685	5
1	687	690	5
1	692	695	5
1	697	700	5
1	702	705	5
1	707	710	5
1	712	715	5
1	717	720	5
1	722	725	5
1	727	730	5
1	732	735	5
1	737	740	5
1	742	745	5
1	747	750	5
1	752	755	5
1	757	760	5
1	762	765	5
1	767	770	5
1	772	775	5
1	777	780	5
1	782	785	5
1	787	790	5
1	792	795	5
1	797	800	5
1	802	805	5
1	807	810	5
1	812	815	5
1	817	820	5
1	822	825	5
1	827	830	5
1	832	835	5
1	837	840	5
1	842	845	5
1	847	850	5
1	852	855	5
1	857	860	5
1	862	865	5
1	867	870	5
1	872	875	5
1	877	880	5
1	882	885	5
1	887	890	5
1	892	895	5
1	897	900	5
1	902	905	5
1	907	910	5
1	912	915	5
1	917	920	5
1	922	925	5
1	927	930	5
1	932	935	5
1	937	940	5
1	942	945	5
1	947	950	5
1	952	955	5
1	957	960	5
1	962	965	5
1	967	970	5
1	972	975	5
1	977	980	5
1	982	985	5
1	987	990	5
1	992	995	5
1	997	1000	5
1	1002	1005	5
1	1007	1010	5
1	1012	1015	5
1	1017	1020	5
1	1022	1025	5
1	1027	1030	5
1	1032	1035	5
1	1037	1040	5
1	1042	1045	5
1	1047	1050	5
1	1052	1055	5
1	1057	1060	5
1	1062	1065	5
1	1067	1070	5
1	1072	1075	5
1	1077	1080	5
1	1082	1085	5
1	1087	1090	5
1	1092	1095	5
1	1097	1100	5
1	1102	1105	5
1	1107	1110	5
1	1112	1115	5
1	1117	1120	5
1	1122	1125	5
1	1127	1130	5
1	1132	1135	5
1	1137	1140	5
1	1142	1145	5
1	1147	1150	5
1	1152	1155	5
1	1157	1160	5
1	1162	1165	5
1	1167	1170	5
1	1172	1175	5
1	1177	1180	5
1	1182	1185	5
1	1187	1190	5
1	1192	1195	5
1	1197	1200	5
1	1202	1205	5
1	1207	1210	5
1	1212	1215	5
1	1217	1220	5
1	1222	1225	5
1	1227	1230	5
1	1232	1235	5
1	1237	1240	5
1	1242	1245	5
1	1247	1250	5
1	1252	1255	5
1	1257	1260	5
1	1262	1265	5
1	1267	1270	5
1	1272	1275	5
1	1277	1280	5
1	1282	1285	5
1	1287	1290	5
1	1292	1295	5
1	1297	1300	5
1	1302	1305	5
1	1307	1310	5
1	1312	1315	5
1	1317	1320	5
1	1322	1325	5
1	1327	1330	5
1	1332	1335	5
1	1337	1340	5
1	1342	1345	5
1	1347	1350	5
1	1352	1355	5
1	1357	1360	5
1	1362	1365	5
1	1367	1370	5
1	1372	1375	5
1	1377	1380	5
1	1382	1385	5
1	1387	1390	5
1	1392	1395	5
1	1397	1400	5
1	1402	1405	5
1	1407	1410	5
1	1412	1415	5
1	1417	1420	5
1	1422	1425	5
1	1427	1430	5
1	1432	1435	5
1	1437	1440	5
1	1442	1445	5
1	1447	1450	5
1	1452	1455	5
1	1457	1460	5
1	1462	1465	5
1	1467	1470	5
1	1472	1475	5
1	1477	1480	5
1	1482	1485	5
1	1487	1490	5
1	1492	1495	5
1	1497	1500	5
1	1502	1505	5
1	1507	1510	5
1	1512	1515	5
1	1517	1520	5
1	1522	1525	5
1	1527	1530	5
1	1532	1535	5
1	1537	1540	5
1	1542	1545	5
1	1547	1550	5
1	1552	1555	5
1	1557	1560	5
1	1562	1565	5
1	1567	1570	5
1	1572	1575	5
1	1577	1580	5
1	1582	1585	5
1	1587	1590	5
1	1592	1595	5
1	1597	1600	5
1	1602	1605	5
1	1607	1610	5
1	1612	1615	5
1	1617	1620	5
1	1622	1625	5
1	1627	1630	5
1	1632	1635	5
1	1637	1640	5
1	1642	1645	5
1	1647	1650	5
1	1652	1655	5
1	1657	1660	5
1	1662	1665	5
1	1667	1670	5
1	1672	1675	5
1	1677	1680	5
1	1682	1685	5
1	1687	1690	5
1	1692	1695	5
1	1697	1700	5
1	1702	1705	5
1	1707	1710	5
1	1712	1715	5
1	1717	1720	5
1	1722	1725	5
1	1727	1730	5
1	1732	1735	5
1	1737	1740	5
1	1742	1745	5
1	1747	1750	5
1	1752	1755	5
1	1757	1760	5
1	1762	1765	5
1	1767	1770	5
1	1772	1775	5
1	1777	1780	5
1	1782	1785	5
1	1787	1790	5
1	1792	1795	5
1	1797	1800	5
1	1802	1805	5
1	1807	1810	5
1	1812	1815	5
1	1817	1820	5
1	1822	1825	5
1	1827	1830	5
1	1832	1835	5
1	1837	1840	5
1	1842	1845	5
1	1847	1850	5
1	1852	1855	5
1	1857	1860	5
1	1862	1865	5
1	1867	1870	5
1	1872	1875	5
1	1877	1880	5
1	1882	1885	5
1	1887	1890	5
1	1892	1895	5
1	1897	1900	5
1	1902	1905	5
1	1907	1910	5
1	1912	1915	5
1	1917	1920	5
1	1922	1925	5
1	1927	1930	5
1	1932	1935	5
1	1937	1940	5
1	1942	1945	5
1	1947	1950	5
1	1952	1955	5
1	1957	1960	5
1	1962	1965	5
1	1967	1970	5
1	1972	1975	5
1	1977	1980	5
1	1982	1985	5
1	1987	1990	5
1	1992	1995	5
1	1997	2000	5
1	2002	2005	5
1	2007	2010	5
1	2012	2015	5
1	2017	2020	5
1	2022	2025	5
1	2027	2030	5
1	2032	2035	5
1	2037	2040	5
1	2042	2045	5
1	2047	2050	5
1	2052	2055	5
1	2057	2060	5
1	2062	2065	5
1	2067	2070	5
1	2072	2075	5
1	2077	2080	5
1	2082	2085	5
1	2087	2090	5
1	2092	2095	5
1	2097	2100	5
1	2102	2105	5
1	2107	2110	5
1	2112	2115	5
1	2117	2120	5
1	2122	2125	5
1	2127	2130	5
1	2132	2135	5
1	2137	2140	5
1	2142	2145	5
1	2147	2150	5
1	2152	2155	5
1	2157	2160	5
1	2162	2165	5
1	2167	2170	5
1	2172	2175	5
1	2177	2180	5
1	2182	2185	5
1	2187	2190	5
1	2192	2195	5
1	2197	2200	5
1	2202	2205	5
1	2207	2210	5
1	2212	2215	5
1	2217	2220	5
1	2222	2225	5
1	2227	2230	5
1	2232	2235	5
1	2237	2240	5
1	2242	2245	5
1	2247	2250	5
1	2252	2255	5
1	2257	2260	5
1	2262	2265	5
1	2267	2270	5
1	2272	2275	5
1	2277	2280	5
1	2282	2285	5
1	2287	2290	5
1	2292	2295	5
1	2297	2300	5
1	2302	2305	5
1	2307	2310	5
1	2312	2315	5
1	2317	2320	5
1	2322	2325	5
1	2327	2330	5
1	2332	2335	5
1	2337	2340	5
1	2342	2345	5
1	2347	2350	5
1	2352	2355	5
1	2357	2360	5
1	2362	2365	5
1	2367	2370	5
1	2372	2375	5
1	2377	2380	5
1	2382	2385	5
1	2387	2390	5
1	2392	2395	5
1	2397	2400	5
1	2402	2405	5
1	2407	2410	5
1	2412	2415	5
1	2417	2420	5
1	2422	2425	5
1	2427	2430	5
1	2432	2435	5
1	2437	2440	5
1	2442	2445	5
1	2447	2450	5
1	2452	2455	5
1	2457	2460	5
1	2462	2465	5
1	2467	2470	5
1	2472	2475	5
1	2477	2480	5
1	2482	2485	5
1	2487	2490	5
1	2492	2495	5
1	2497	2500	5
1	2502	2505	5
1	2507	2510	5
1	2512	2515	5
1	2517	2520	5
1	2522	2525	5
1	2527	2530	5
1	2532	2535	5
1	2537	2540	5
1	2542	2545	5
1	2547	2550	5
1	2552	2555	5
1	2557	2560	5
1	2562	2565	5
1	2567	2570	5
1	2572	2575	5
1	2577	2580	5
1	2582	2585	5
1	2587	2590	5
1	2592	2595	5
1	2597	2600	5
1	2602	2605	5
1	2607	2610	5
1	2612	2615	5
1	2617	2620	5
1	2622	2625	5
1	2627	2630	5
1	2632	2635	5
1	2637	2640	5
1	2642	2645	5
1	2647	2650	5
1	2652	2655	5
1	2657	2660	5
1	2662	2665	5
1	2667	2670	5
1	2672	2675	5
1	2677	2680	5
1	2682	2685	5
1	2687	2690	5
1	2692	2695	5
1	2697	2700	5
1	2702	2705	5
1	2707	2710	5
1	2712	2715	5
1	2717	2720	5
1	2722	2725	5
1	2727	2730	5
1	2732	2735	5
1	2737	2740	5
1	2742	2745	5
1	2747	2750	5
1	2752	2755	5
1	2757	2760	5
1	2762	2765	5
1	2767	2770	5
1	2772	2775	5
1	2777	2780	5
1	2782	2785	5
1	2787	2790	5
1	2792	2795	5
1	2797	2800	5
1	2802	2805	5
1	2807	2810	5
1	2812	2815	5
1	2817	2820	5
1	2822	2825	5
1	2827	2830	5
1	2832	2835	5
1	2837	2840	5
1	2842	2845	5
1	2847	2850	5
1	2852	2855	5
1	2857	2860	5
1	2862	2865	5
1	2867	2870	5
1	2872	2875	5
1	2877	2880	5
1	2882	2885	5
1	2887	2890	5
1	2892	2895	5
1	2897	2900	5
1	2902	2905	5
1	2907	2910	5
1	2912	2915	5
1	2917	2920	5
1	2922	2925	5
1	2927	2930	5
1	2932	2935	5
1	2937	2940	5
1	2942	2945	5
1	2947	2950	5
1	2952	2955	5
1	2957	2960	5
1	2962	2965	5
1	2967	2970	5
1	2972	2975	5
1	2977	2980	5
1	2982	2985	5
1	2987	2990	5
1	2992	2995	5
1	2997	3000	5
1	3002	3005	5
1	3007	3010	5
1	3012	3015	5
1	3017	3020	5
1	3022	3025	5
1	3027	3030	5
1	3032	3035	5
1	3037	3040	5
1	3042	3045	5
1	3047	3050	5
1	3052	3055	5
1	3057	3060	5
1	3062	3065	5
1	3067	3070	5
1	3072	3075	5
1	3077	3080	5
1	3082	3085	5
1	3087	3090	5
1	3092	3095	5
1	3097	3100	5
1	3102	3105	5
1	3107	3110	5
1	3112	3115	5
1	3117	3120	5
1	3122	3125	5
1	3127	3130	5
1	3132	3135	5
1	3137	3140	5
1	3142	3145	5
1	3147	3150	5
1	3152	3155	5
1	3157	3160	5
1	3162	3165	5
1	3167	3170	5
1	3172	3175	5
1	3177	3180	5
1	3182	3185	5
1	3187	3190	5
1	3192	3195	5
1	3197	3200	5
1	3202	3205	5
1	3207	3210	5
1	3212	3215	5
1	3217	3220	5
1	3222	3225	5
1	3227	3230	5
1	3232	3235	5
1	3237	3240	5
1	3242	3245	5
1	3247	3250	5
1	3252	3255	5
1	3257	3260	5
1	3262	3265	5
1	3267	3270	5
1	3272	3275	5
1	3277	3280	5
1	3282	3285	5
1	3287	3290	5
1	3292	3295	5
1	3297	3300	5
1	3302	3305	5
1	3307	3310	5
1	3312	3315	5
1	3317	3320	5
1	3322	3325	5
1	3327	3330	5
1	3332	3335	5
1	3337	3340	5
1	3342	3345	5
1	3347	3350	5
1	3352	3355	5
1	3357	3360	5
1	3362	3365	5
1	3367	3370	5
1	3372	3375	5
1	3377	3380	5
1	3382	3385	5
1	3387	3390	5
1	3392	3395	5
1	3397	3400	5
1	3402	3405	5
1	3407	3410	5
1	3412	3415	5
1	3417	3420	5
1	3422	3425	5
1	3427	3430	5
1	3432	3435	5
1	3437	3440	5
1	3442	3445	5
1	3447	3450	5
1	3452	3455	5
1	3457	3460	5
1	3462	3465	5
1	3467	3470	5
1	3472	3475	5
1	3477	3480	5
1	3482	3485	5
1	3487	3490	5
1	3492	3495	5
1	3497	3500	5
1	3502	3505	5
1	3507	3510	5
1	3512	3515	5
1	3517	3520	5
1	3522	3525	5
1	3527	3530	5
1	3532	3535	5
1	3537	3540	5
1	3542	3545	5
1	3547	3550	5
1	3552	3555	5
1	3557	3560	5
1	3562	3565	5
1	3567	3570	5
1	3572	3575	5
1	3577	3580	5
1	3582	3585	5
1	3587	3590	5
1	3592	3595	5
1	3597	3600	5
1	3602	3605	5
1	3607	3610	5
1	3612	3615	5
1	3617	3620	5
1	3622	3625	5
1	3627	3630	5
1	3632	3635	5
1	3637	3640	5
1	3642	3645	5
1	3647	3650	5
1	3652	3655	5
1	3657	3660	5
1	3662	3665	5
1	3667	3670	5
1	3672	3675	5
1	3677	3680	5
1	3682	3685	5
1	3687	3690	5
1	3692	3695	5
1	3697	3700	5
1	3702	3705	5
1	3707	3710	5
1	3712	3715	5
1	3717	3720	5
1	3722	3725	5
1	3727	3730	5
1	3732	3735	5
1	3737	3740	5
1	3742	3745	5
1	3747	3750	5
1	3752	3755	5
1	3757	3760	5
1	3762	3765	5
1	3767	3770	5
1	3772	3775	5
1	3777	3780	5
1	3782	3785	5
1	3787	3790	5
1	3792	3795	5
1	3797	3800	5
1	3802	3805	5
1	3807	3810	5
1	3812	3815	5
1	3817	3820	5
1	3822	3825	5
1	3827	3830	5
1	3832	3835	5
1	3837	3840	5
1	3842	3845	5
1	3847	3850	5
1	3852	3855	5
1	3857	3860	5
1	3862	3865	5
1	3867	3870	5
1	3872	3875	5
1	3877	3880	5
1	3882	3885	5
1	3887	3890	5
1	3892	3895	5
1	3897	3900	5
1	3902	3905	5
1	3907	3910	5
1	3912	3915	5
1	3917	3920	5
1	3922	3925	5
1	3927	3930	5
1	3932	3935	5
1	3937	3940	5
1	3942	3945	5
1	3947	3950	5
1	3952	3955	5
1	3957	3960	5
1	3962	3965	5
1	3967	3970	5
1	3972	3975	5
1	3977	3980	5
1	3982	3985	5
1	3987	3990	5
1	3992	3995	5
1	3997	4000	5
1	4002	4005	5
1	4007	4010	5
1	4012	4015	5
1	4017	4020	5
1	4022	4025	5
1	4027	4030	5
1	4032	4035	5
1	4037	4040	5
1	4042	4045	5
1	4047	4050	5
1	4052	4055	5
1	4057	4060	5
1	4062	4065	5
1	4067	4070	5
1	4072	4075	5
1	4077	4080	5
1	4082	4085	5
1	4087	4090	5
1	4092	4095	5
1	4097	4100	5
1	4102	4105	5
1	4107	4110	5
1	4112	4115	5
1	4117	4120	5
1	4122	4125	5
1	4127	4130	5
1	4132	4135	5
1	4137	4140	5
1	4142	4145	5
1	4147	4150	5
1	4152	4155	5
1	4157	4160	5
1	4162	4165	5
1	4167	4170	5
1	4172	4175	5
1	4177	4180	5
1	4182	4185	5
1	4187	4190	5
1	4192	4195	5
1	4197	4200	5
1	4202	4205	5
1	4207	4210	5
1	4212	4215	5
1	4217	4220	5
1	4222	4225	5
1	4227	4230	5
1	4232	4235	5
1	4237	4240	5
1	4242	4245	5
1	4247	4250	5
1	4252	4255	5
1	4257	4260	5
1	4262	4265	5
1	4267	4270	5
1	4272	4275	5
1	4277	4280	5
1	4282	4285	5
1	4287	4290	5
1	4292	4295	5
1	4297	4300	5
1	4302	4305	5
1	4307	4310	5
1	4312	4315	5
1	4317	4320	5
1	4322	4325	5
1	4327	4330	5
1	4332	4335	5
1	4337	4340	5
1	4342	4345	5
1	4347	4350	5
1	4352	4355	5
1	4357	4360	5
1	4362	4365	5
1	4367	4370	5
1	4372	4375	5
1	4377	4380	5
1	4382	4385	5
1	4387	4390	5
1	4392	4395	5
1	4397	4400	5
1	4402	4405	5
1	4407	4410	5
1	4412	4415	5
1	4417	4420	5
1	4422	4425	5
1	4427	4430	5
1	4432	4435	5
1	4437	4440	5
1	4442	4445	5
1	4447	4450	5
1	4452	4455	5
1	4457	4460	5
1	4462	4465	5
1	4467	4470	5
1	4472	4475	5
1	4477	4480	5
1	4482	4485	5
1	4487	4490	5
1	4492	4495	5
1	4497	4500	5
1	4502	4505	5
1	4507	4510	5
1	4512	4515	5
1	4517	4520	5
1	4522	4525	5
1	4527	4530	5
1	4532	4535	5
1	4537	4540	5
1	4542	4545	5
1	4547	4550	5
1	4552	4555	5
1	4557	4560	5
1	4562	4565	5
1	4567	4570	5
1	4572	4575	5
1	4577	4580	5
1	4582	4585	5
1	4587	4590	5
1	4592	4595	5
1	4597	4600	5
1	4602	4605	5
1	4607	4610	5
1	4612	4615	5
1	4617	4620	5
1	4622	4625	5
1	4627	4630	5
1	4632	4635	5
1	4637	4640	5
1	4642	4645	5
1	4647	4650	5
1	4652	4655	5
1	4657	4660	5
1	4662	4665	5
1	4667	4670	5
1	4672	4675	5
1	4677	4680	5
1	4682	4685	5
1	4687	4690	5
1	4692	4695	5
1	4697	4700	5
1	4702	4705	5
1	4707	4710	5
1	4712	4715	5
1	4717	4720	5
1	4722	4725	5
1	4727	4730	5
1	4732	4735	5
1	4737	4740	5
1	4742	4745	5
1	4747	4750	5
1	4752	4755	5
1	4757	4760	5
1	4762	4765	5
1	4767	4770	5
1	4772	4775	5
1	4777	4780	5
1	4782	4785	5
1	4787	4790	5
1	4792	4795	5
1	4797	4800	5
1	4802	4805	5
1	4807	4810	5
1	4812	4815	5
1	4817	4820	5
1	4822	4825	5
1	4827	4830	5
1	4832	4835	5
1	4837	4840	5
1	4842	4845	5
1	4847	4850	5
1	4852	4855	5
1	4857	4860	5
1	4862	4865	5
1	4867	4870	5
1	4872	4875	5
1	4877	4880	5
1	4882	4885	5
1	4887	4890	5
1	4892	4895	5
1	4897	4900	5
1	4902	4905	5
1	4907	4910	5
1	4912	4915	5
1	4917	4920	5
1	4922	4925	5
1	4927	4930	5
1	4932	4935	5
1	4937	4940	5
1	4942	4945	5
1	4947	4950	5
1	4952	4955	5
1	4957	4960	5
1	4962	4965	5
1	4967	4970	5
1	4972	4975	5
1	4977	4980	5
1	4982	4985	5
1	4987	4990	5
1	4992	4995	5
1	4997	5000	5
1	5002	5005	5
1	5007	5010	5
1	5012	5015	5
1	5017	5020	5
1	5022	5025	5
1	5027	5030	5
1	5032	5035	5
1	5037	5040	5
1	5042	5045	5
1	5047	5050	5
1	5052	5055	5
1	5057	5060	5
1	5062	5065	5
1	5067	5070	5
1	5072	5075	5
1	5077	5080	5
1	5082	5085	5
1	5087	5090	5
1	5092	5095	5
1	5097	5100	5
1	5102	5105	5
1	5107	5110	5
1	5112	5115	5
1	5117	5120	5
1	5122	5125	5
1	5127	5130	5
1	5132	5135	5
1	5137	5140	5
1	5142	5145	5
1	5147	5150	5
1	5152	5155	5
1	5157	5160	5
1	5162	5165	5
1	5167	5170	5
1	5172	5175	5
1	5177	5180	5
1	5182	5185	5
1	5187	5190	5
1	5192	5195	5
1	5197	5200	5
1	5202	5205	5
1	5207	5210	5
1	5212	5215	5
1	5217	5220	5
1	5222	5225	5
1	5227	5230	5
1	5232	5235	5
1	5237	5240	5
1	5242	5245	5
1	5247	5250	5
1	5252	5255	5
1	5257	5260	5
1	5262	5265	5
1	5267	5270	5
1	5272	5275	5
1	5277	5280	5
1	5282	5285	5
1	5287	5290	5
1	5292	5295	5
1	5297	5300	5
1	5302	5305	5
1	5307	5310	5
1	5312	5315	5
1	5317	5320	5
1	5322	5325	5
1	5327	5330	5
1	5332	5335	5
1	5337	5340	5
1	5342	5345	5
1	5347	5350	5
1	5352	5355	5
1	5357	5360	5
1	5362	5365	5
1	5367	5370	5
1	5372	5375	5
1	5377	5380	5
1	5382	5385	5
1	5387	5390	5
1	5392	5395	5
1	5397	5400	5
1	5402	5405	5
1	5407	5410	5
1	5412	5415	5
1	5417	5420	5
1	5422	5425	5
1	5427	5430	5
1	5432	5435	5
1	5437	5440	5
1	5442	5445	5
1	5447	5450	5
1	5452	5455	5
1	5457	5460	5
1	5462	5465	5
1	5467	5470	5
1	5472	5475	5
1	5477	5480	5
1	5482	5485	5
1	5487	5490	5
1	5492	5495	5
1	5497	5500	5
1	5502	5505	5
1	5507	5510	5
1	5512	5515	5
1	5517	5520	5
1	5522	5525	5
1	5527	5530	5
1	5532	5535	5
1	5537	5540	5
1	5542	5545	5
1	5547	5550	5
1	5552	5555	5
1	5557	5560	5
1	5562	5565	5
1	5567	5570	5
1	5572	5575	5
1	5577	5580	5
1	5582	5585	5
1	5587	5590	5
1	5592	5595	5
1	5597	5600	5
1	5602	5605	5
1	5607	5610	5
1	5612	5615	5
1	5617	5620	5
1	5622	5625	5
1	5627	5630	5
1	5632	5635	5
1	5637	5640	5
1	5642	5645	5
1	5647	5650	5
1	5652	5655	5
1	5657	5660	5
1	5662	5665	5
1	5667	5670	5
1	5672	5675	5
1	5677	5680	5
1	5682	5685	5
1	5687	5690	5
1	5692	5695	5
1	5697	5700	5
1	5702	5705	5
1	5707	5710	5
1	5712	5715	5
1	5717	5720	5
1	5722	5725	5
1	5727	5730	5
1	5732	5735	5
1	5737	5740	5
1	5742	5745	5
1	5747	5750	5
1	5752	5755	5
1	5757	5760	5
1	5762	5765	5
1	5767	5770	5
1	5772	5775	5
1	5777	5780	5
1	5782	5785	5
1	5787	5790	5
1	5792	5795	5
1	5797	5800	5
1	5802	5805	5
1	5807	5810	5
1	5812	5815	5
1	5817	5820	5
1	5822	5825	5
1	5827	5830	5
1	5832	5835	5
1	5837	5840	5
1	5842	5845	5
1	5847	5850	5
1	5852	5855	5
1	5857	5860	5
1	5862	5865	5
1	5867	5870	5
1	5872	5875	5
1	5877	5880	5
1	5882	5885	5
1	5887	5890	5
1	5892	5895	5
1	5897	5900	5
1	5902	5905	5
1	5907	5910	5
1	5912	5915	5
1	5917	5920	5
1	5922	5925	5
1	5927	5930	5
1	5932	5935	5
1	5937	5940	5
1	5942	5945	5
1	5947	5950	5
1	5952	5955	5
1	5957	5960	5
1	5962	5965	5
1	5967	5970	5
1	5972	5975	5
1	5977	5980	5
1	5982	5985	5
1	5987	5990	5
1	5992	5995	5
1	5997	6000	5
1	6002	6005	5
1	6007	6010	5
1	6012	6015	5
1	6017	6020	5
1	6022	6025	5
1	6027	6030	5
1	6032	6035	5
1	6037	6040	5
1	6042	6045	5
1	6047	6050	5
1	6052	6055	5
1	6057	6060	5
1	6062	6065	5
1	6067	6070	5
1	6072	6075	5
1	6077	6080	5
1	6082	6085	5
1	6087	6090	5
1	6092	6095	5
1	6097	6100	5
1	6102	6105	5
1	6107	6110	5
1	6112	6115	5
1	6117	6120	5
1	6122	6125	5
1	6127	6130	5
1	6132	6135	5
1	6137	6140	5
1	6142	6145	5
1	6147	6150	5
1	6152	6155	5
1	6157	6160	5
1	6162	6165	5
1	6167	6170	5
1	6172	6175	5
1	6177	6180	5
1	6182	6185	5
1	6187	6190	5
1	6192	6195	5
1	6197	6200	5
1	6202	6205	5
1	6207	6210	5
1	6212	6215	5
1	6217	6220	5
1	6222	6225	5
1	6227	6230	5
1	6232	6235	5
1	6237	6240	5
1	6242	6245	5
1	6247	6250	5
1	6252	6255	5
1	6257	6260	5
1	6262	6265	5
1	6267	6270	5
1	6272	6275	5
1	6277	6280	5
1	6282	6285	5
1	6287	6290	5
1	6292	6295	5
1	6297	6300	5
1	6302	6305	5
1	6307	6310	5
1	6312	6315	5
1	6317	6320	5
1	6322	6325	5
1	6327	6330	5
1	6332	6335	5
1	6337	6340	5
1	6342	6345	5
1	6347	6350	5
1	6352	6355	5
1	6357	6360	5
1	6362	6365	5
1	6367	6370	5
1	6372	6375	5
1	6377	6380	5
1	6382	6385	5
1	6387	6390	5
1	6392	6395	5
1	6397	6400	5
1	6402	6405	5
1	6407	6410	5
1	6412	6415	5
1	6417	6420	5
1	6422	6425	5
1	6427	6430	5
1	6432	6435	5
1	6437	6440	5
1	6442	6445	5
1	6447	6450	5
1	6452	6455	5
1	6457	6460	5
1	6462	6465	5
1	6467	6470	5
1	6472	6475	5
1	6477	6480	5
1	6482	6485	5
1	6487	6490	5
1	6492	6495	5
1	6497	6500	5
1	6502	6505	5
1	6507	6510	5
1	6512	6515	5
1	6517	6520	5
1	6522	6525	5
1	6527	6530	5
1	6532	6535	5
1	6537	6540	5
1	6542	6545	5
1	6547	6550	5
1	6552	6555	5
1	6557	6560	5
1	6562	6565	5
1	6567	6570	5
1	6572	6575	5
1	6577	6580	5
1	6582	6585	5
1	6587	6590	5
1	6592	6595	5
1	6597	6600	5
1	6602	6605	5
1	6607	6610	5
1	6612	6615	5
1	6617	6620	5
1	6622	6625	5
1	6627	6630	5
1	6632	6635	5
1	6637	6640	5
1	6642	6645	5
1	6647	6650	5
1	6652	6655	5
1	6657	6660	5
1	6662	6665	5
1	6667	6670	5
1	6672	6675	5
1	6677	6680	5
1	6682	6685	5
1	6687	6690	5
1	6692	6695	5
1	6697	6700	5
1	6702	6705	5
1	6707	6710	5
1	6712	6715	5
1	6717	6720	5
1	6722	6725	5
1	6727	6730	5
1	6732	6735	5
1	6737	6740	5
1	6742	6745	5
1	6747	6750	5
1	6752	6755	5
1	6757	6760	5
1	6762	6765	5
1	6767	6770	5
1	6772	6775	5
1	6777	6780	5
1	6782	6785	5
1	6787	6790	5
1	6792	6795	5
1	6797	6800	5
1	6802	6805	5
1	6807	6810	5
1	6812	6815	5
1	6817	6820	5
1	6822	6825	5
1	6827	6830	5
1	6832	6835	5
1	6837	6840	5
1	6842	6845	5
1	6847	6850	5
1	6852	6855	5
1	6857	6860	5
1	6862	6865	5
1	6867	6870	5
1	6872	6875	5
1	6877	6880	5
1	6882	6885	5
1	6887	6890	5
1	6892	6895	5
1	6897	6900	5
1	6902	6905	5
1	6907	6910	5
1	6912	6915	5
1	6917	6920	5
1	6922	6925	5
1	6927	6930	5
1	6932	6935	5
1	6937	6940	5
1	6942	6945	5
1	6947	6950	5
1	6952	6955	5
1	6957	6960	5
1	6962	6965	5
1	6967	6970	5
1	6972	6975	5
1	6977	6980	5
1	6982	6985	5
1	6987	6990	5
1	6992	6995	5
1	6997	7000	5
1	7002	7005	5
1	7007	7010	5
1	7012	7015	5
1	7017	7020	5
1	7022	7025	5
1	7027	7030	5
1	7032	7035	5
1	7037	7040	5
1	7042	7045	5
1	7047	7050	5
1	7052	7055	5
1	7057	7060	5
1	7062	7065	5
1	7067	7070	5
1	7072	7075	5
1	7077	7080	5
1	7082	7085	5
1	7087	7090	5
1	7092	7095	5
1	7097	7100	5
1	7102	7105	5
1	7107	7110	5
1	7112	7115	5
1	7117	7120	5
1	7122	7125	5
1	7127	7130	5
1	7132	7135	5
1	7137	7140	5
1	7142	7145	5
1	7147	7150	5
1	7152	7155	5
1	7157	7160	5
1	7162	7165	5
1	7167	7170	5
1	7172	7175	5
1	7177	7180	5
1	7182	7185	5
1	7187	7190	5
1	7192	7195	5
1	7197	7200	5
1	7202	7205	5
1	7207	7210	5
1	7212	7215	5
1	7217	7220	5
1	7222	7225	5
1	7227	7230	5
1	7232	7235	5
1	7237	7240	5
1	7242	7245	5
1	7247	7250	5
1	7252	7255	5
1	7257	7260	5
1	7262	7265	5
1	7267	7270	5
1	7272	7275	5
1	7277	7280	5
1	7282	7285	5
1	7287	7290	5
1	7292	7295	5
1	7297	7300	5
1	7302	7305	5
1	7307	7310	5
1	7312	7315	5
1	7317	7320	5
1	7322	7325	5
1	7327	7330	5
1	7332	7335	5
1	7337	7340	5
1	7342	7345	5
1	7347	7350	5
1	7352	7355	5
1	7357	7360	5
1	7362	7365	5
1	7367	7370	5
1	7372	7375	5
1	7377	7380	5
1	7382	7385	5
1	7387	7390	5
1	7392	7395	5
1	7397	7400	5
1	7402	7405	5
1	7407	7410	5
1	7412	7415	5
1	7417	7420	5
1	7422	7425	5
1	7427	7430	5
1	7432	7435	5
1	7437	7440	5
1	7442	7445	5
1	7447	7450	5
1	7452	7455	5
1	7457	7460	5
1	7462	7465	5
1	7467	7470	5
1	7472	7475	5
1	7477	7480	5
1	7482	7485	5
1	7487	7490	5
1	7492	7495	5
1	7497	7500	5
1	7502	7505	5
1	7507	7510	5
1	7512	7515	5
1	7517	7520	5
1	7522	7525	5
1	7527	7530	5
1	7532	7535	5
1	7537	7540	5
1	7542	7545	5
1	7547	7550	5
1	7552	7555	5
1	7557	7560	5
1	7562	7565	5
1	7567	7570	5
1	7572	7575	5
1	7577	7580	5
1	7582	7585	5
1	7587	7590	5
1	7592	7595	5
1	7597	7600	5
1	7602	7605	5
1	7607	7610	5
1	7612	7615	5
1	7617	7620	5
1	7622	7625	5
1	7627	7630	5
1	7632	7635	5
1	7637	7640	5
1	7642	7645	5
1	7647	7650	5
1	7652	7655	5
1	7657	7660	5
1	7662	7665	5
1	7667	7670	5
1	7672	7675	5
1	7677	7680	5
1	7682	7685	5
1	7687	7690	5
1	7692	7695	5
1	7697	7700	5
1	7702	7705	5
1	7707	7710	5
1	7712	7715	5
1	7717	7720	5
1	7722	7725	5
1	7727	7730	5
1	7732	7735	5
1	7737	7740	5
1	7742	7745	5
1	7747	7750	5
1	7752	7755	5
1	7757	7760	5
1	7762	7765	5
1	7767	7770	5
1	7772	7775	5
1	7777	7780	5
1	7782	7785	5
1	7787	7790	5
1	7792	7795	5
1	7797	7800	5
1	7802	7805	5
1	7807	7810	5
1	7812	7815	5
1	7817	7820	5
1	7822	7825	5
1	7827	7830	5
1	7832	7835	5
1	7837	7840	5
1	7842	7845	5
1	7847	7850	5
1	7852	7855	5
1	7857	7860	5
1	7862	7865	5
1	7867	7870	5
1	7872	7875	5
1	7877	7880	5
1	7882	7885	5
1	7887	7890	5
1	7892	7895	5
1	7897	7900	5
1	7902	7905	5
1	7907	7910	5
1	7912	7915	5
1	7917	7920	5
1	7922	7925	5
1	7927	7930	5
1	7932	7935	5
1	7937	7940	5
1	7942	7945	5
1	7947	7950	5
1	7952	7955	5
1	7957	7960	5
1	7962	7965	5
1	7967	7970	5
1	7972	7975	5
1	7977	7980	5
1	7982	7985	5
1	7987	7990	5
1	7992	7995	5
1	7997	8000	5
1	8002	8005	5
1	8007	8010	5
1	8012	8015	5
1	8017	8020	5
1	8022	8025	5
1	8027	8030	5
1	8032	8035	5
1	8037	8040	5
1	8042	8045	5
1	8047	8050	5
1	8052	8055	5
1	8057	8060	5
1	8062	8065	5
1	8067	8070	5
1	8072	8075	5
1	8077	8080	5
1	8082	8085	5
1	8087	8090	5
1	8092	8095	5
1	8097	8100	5
1	8102	8105	5
1	8107	8110	5
1	8112	8115	5
1	8117	8120	5
1	8122	8125	5
1	8127	8130	5
1	8132	8135	5
1	8137	8140	5
1	8142	8145	5
1	8147	8150	5
1	8152	8155	5
1	8157	8160	5
1	8162	8165	5
1	8167	8170	5
1	8172	8175	5
1	8177	8180	5
1	8182	8185	5
1	8187	8190	5
1	8192	8195	5
1	8197	8200	5
1	8202	8205	5
1	8207	8210	5
1	8212	8215	5
1	8217	8220	5
1	8222	8225	5
1	8227	8230	5
1	8232	8235	5
1	8237	8240	5
1	8242	8245	5
1	8247	8250	5
1	8252	8255	5
1	8257	8260	5
1	8262	8265	5
1	8267	8270	5
1	8272	8275	5
1	8277	8280	5
1	8282	8285	5
1	8287	8290	5
1	8292	8295	5
1	8297	8300	5
1	8302	8305	5
1	8307	8310	5
1	8312	8315	5
1	8317	8320	5
1	8322	8325	5
1	8327	8330	5
1	8332	8335	5
1	8337	8340	5
1	8342	8345	5
1	8347	8350	5
1	8352	8355	5
1	8357	8360	5
1	8362	8365	5
1	8367	8370	5
1	8372	8375	5
1	8377	8380	5
1	8382	8385	5
1	8387	8390	5
1	8392	8395	5
1	8397	8400	5
1	8402	8405	5
1	8407	8410	5
1	8412	8415	5
1	8417	8420	5
1	8422	8425	5
1	8427	8430	5
1	8432	8435	5
1	8437	8440	5
1	8442	8445	5
1	8447	8450	5
1	8452	8455	5
1	8457	8460	5
1	8462	8465	5
1	8467	8470	5
1	8472	8475	5
1	8477	8480	5
1	8482	8485	5
1	8487	8490	5
1	8492	8495	5
1	8497	8500	5
1	8502	8505	5
1	8507	8510	5
1	8512	8515	5
1	8517	8520	5
1	8522	8525	5
1	8527	8530	5
1	8532	8535	5
1	8537	8540	5
1	8542	8545	5
1	8547	8550	5
1	8552	8555	5
1	8557	8560	5
1	8562	8565	5
1	8567	8570	5
1	8572	8575	5
1	8577	8580	5
1	8582	8585	5
1	8587	8590	5
1	8592	8595	5
1	8597	8600	5
1	8602	8605	5
1	8607	8610	5
1	8612	8615	5
1	8617	8620	5
1	8622	8625	5
1	8627	8630	5
1	8632	8635	5
1	8637	8640	5
1	8642	8645	5
1	8647	8650	5
1	8652	8655	5
1	8657	8660	5
1	8662	8665	5
1	8667	8670	5
1	8672	8675	5
1	8677	8680	5
1	8682	8685	5
1	8687	8690	5
1	8692	8695	5
1	8697	8700	5
1	8702	8705	5
1	8707	8710	5
1	8712	8715	5
1	8717	8720	5
1	8722	8725	5
1	8727	8730	5
1	8732	8735	5
1	8737	8740	5
1	8742	8745	5
1	8747	8750	5
1	8752	8755	5
1	8757	8760	5
1	8762	8765	5
1	8767	8770	5
1	8772	8775	5
1	8777	8780	5
1	8782	8785	5
1	8787	8790	5
1	8792	8795	5
1	8797	8800	5
1	8802	8805	5
1	8807	8810	5
1	8812	8815	5
1	8817	8820	5
1	8822	8825	5
1	8827	8830	5
1	8832	8835	5
1	8837	8840	5
1	8842	8845	5
1	8847	8850	5
1	8852	8855	5
1	8857	8860	5
1	8862	8865	5
1	8867	8870	5
1	8872	8875	5
1	8877	8880	5
1	8882	8885	5
1	8887	8890	5
1	8892	8895	5
1	8897	8900	5
1	8902	8905	5
1	8907	8910	5
1	8912	8915	5
1	8917	8920	5
1	8922	8925	5
1	8927	8930	5
1	8932	8935	5
1	8937	8940	5
1	8942	8945	5
1	8947	8950	5
1	8952	8955	5
1	8957	8960	5
1	8962	8965	5
1	8967	8970	5
1	8972	8975	5
1	8977	8980	5
1	8982	8985	5
1	8987	8990	5
1	8992	8995	5
1	8997	9000	5
1	9002	9005	5
1	9007	9010	5
1	9012	9015	5
1	9017	9020	5
1	9022	9025	5
1	9027	9030	5
1	9032	9035	5
1	9037	9040	5
1	9042	9045	5
1	9047	9050	5
1	9052	9055	5
1	9057	9060	5
1	9062	9065	5
1	9067	9070	5
1	9072	9075	5
1	9077	9080	5
1	9082	9085	5
1	9087	9090	5
1	9092	9095	5
1	9097	9100	5
1	9102	9105	5
1	9107	9110	5
1	9112	9115	5
1	9117	9120	5
1	9122	9125	5
1	9127	9130	5
1	9132	9135	5
1	9137	9140	5
1	9142	9145	5
1	9147	9150	5
1	9152	9155	5
1	9157	9160	5
1	9162	9165	5
1	9167	9170	5
1	9172	9175	5
1	9177	9180	5
1	9182	9185	5
1	9187	9190	5
1	9192	9195	5
1	9197	9200	5
1	9202	9205	5
1	9207	9210	5
1	9212	9215	5
1	9217	9220	5
1	9222	9225	5
1	9227	9230	5
1	9232	9235	5
1	9237	9240	5
1	9242	9245	5
1	9247	9250	5
1	9252	9255	5
1	9257	9260	5
1	9262	9265	5
1	9267	9270	5
1	9272	9275	5
1	9277	9280	5
1	9282	9285	5
1	9287	9290	5
1	9292	9295	5
1	9297	9300	5
1	9302	9305	5
1	9307	9310	5
1	9312	9315	5
1	9317	9320	5
1	9322	9325	5
1	9327	9330	5
1	9332	9335	5
1	9337	9340	5
1	9342	9345	5
1	9347	9350	5
1	9352	9355	5
1	9357	9360	5
1	9362	9365	5
1	9367	9370	5
1	9372	9375	5
1	9377	9380	5
1	9382	9385	5
1	9387	9390	5
1	9392	9395	5
1	9397	9400	5
1	9402	9405	5
1	9407	9410	5
1	9412	9415	5
1	9417	9420	5
1	9422	9425	5
1	9427	9430	5
1	9432	9435	5
1	9437	9440	5
1	9442	9445	5
1	9447	9450	5
1	9452	9455	5
1	9457	9460	5
1	9462	9465	5
1	9467	9470	5
1	9472	9475	5
1	9477	9480	5
1	9482	9485	5
1	9487	9490	5
1	9492	9495	5
1	9497	9500	5
1	9502	9505	5
1	9507	9510	5
1	9512	9515	5
1	9517	9520	5
1	9522	9525	5
1	9527	9530	5
1	9532	9535	5
1	9537	9540	5
1	9542	9545	5
1	9547	9550	5
1	9552	9555	5
1	9557	9560	5
1	9562	9565	5
1	9567	9570	5
1	9572	9575	5
1	9577	9580	5
1	9582	9585	5
1	9587	9590	5
1	9592	9595	5
1	9597	9600	5
1	9602	9605	5
1	9607	9610	5
1	9612	9615	5
1	9617	9620	5
1	9622	9625	5
1	9627	9630	5
1	9632	9635	5
1	9637	9640	5
1	9642	9645	5
1	9647	9650	5
1	9652	9655	5
1	9657	9660	5
1	9662	9665	5
1	9667	9670	5
1	9672	9675	5
1	9677	9680	5
1	9682	9685	5
1	9687	9690	5
1	9692	9695	5
1	9697	9700	5
1	9702	9705	5
1	9707	9710	5
1	9712	9715	5
1	9717	9720	5
1	9722	9725	5
1	9727	9730	5
1	9732	9735	5
1	9737	9740	5
1	9742	9745	5
1	9747	9750	5
1	9752	9755	5
1	9757	9760	5
1	9762	9765	5
1	9767	9770	5
1	9772	9775	5
1	9777	9780	5
1	9782	9785	5
1	9787	9790	5
1	9792	9795	5
1	9797	9800	5
1	9802	9805	5
1	9807	9810	5
1	9812	9815	5
1	9817	9820	5
1	9822	9825	5
1	9827	9830	5
1	9832	9835	5
1	9837	9840	5
1	9842	9845	5
1	9847	9850	5
1	9852	9855	5
1	9857	9860	5
1	9862	9865	5
1	9867	9870	5
1	9872	9875	5
1	9877	9880	5
1	9882	9885	5
1	9887	9890	5
1	9892	9895	5
1	9897	9900	5
1	9902	9905	5
1	9907	9910	5
1	9912	9915	5
1	9917	9920	5
1	9922	9925	5
1	9927	9930	5
1	9932	9935	5
1	9937	9940	5
1	9942	9945	5
1	9947	9950	5
1	9952	9955	5
1	9957	9960	5
1	9962	9965	5
1	9967	9970	5
1	9972	9975	5
1	9977	9980	5
1	9982	9985	5
1	9987	9990	5
1	9992	9995	5
1	9997	10000	5
1	10002	10005	5
1	10007	10010	5
1	10012	10015	5
1	10017	10020	5
1	10022	10025	5
1	10027	10030	5
1	10032	10035	5
1	10037	10040	5
1	10042	10045	5
1	10047	10050	5
1	10052	10055	5
1	10057	10060	5
1	10062	10065	5
1	10067	10070	5
1	10072	10075	5
1	10077	10080	5
1	10082	10085	5
1	10087	10090	5
1	10092	10095	5
1	10097	10100	5
1	10102	10105	5
1	10107	10110	5
1	10112	10115	5
1	10117	10120	5
1	10122	10125	5
1	10127	10130	5
1	10132	10135	5
1	10137	10140	5
1	10142	10145	5
1	10147	10150	5
1	10152	10155	5
1	10157	10160	5
1	10162	10165	5
1	10167	10170	5
1	10172	10175	5
1	10177	10180	5
1	10182	10185	5
1	10187	10190	5
1	10192	10195	5
1	10197	10200	5
1	10202	10205	5
1	10207	10210	5
1	10212	10215	5
1	10217	10220	5
1	10222	10225	5
1	10227	10230	5
1	10232	10235	5
1	10237	10240	5
1	10242	10245	5
1	10247	10250	5
1	10252	10255	5
1	10257	10260	5
1	10262	10265	5
1	10267	10270	5
1	10272	10275	5
1	10277	10280	5
1	10282	10285	5
1	10287	10290	5
1	10292	10295	5
1	10297	10300	5
1	10302	10305	5
1	10307	10310	5
1	10312	10315	5
1	10317	10320	5
1	10322	10325	5
1	10327	10330	5
1	10332	10335	5
1	10337	10340	5
1	10342	10345	5
1	10347	10350	5
1	10352	10355	5
1	10357	10360	5
1	10362	10365	5
1	10367	10370	5
1	10372	10375	5
1	10377	10380	5
1	10382	10385	5
1	10387	10390	5
1	10392	10395	5
1	10397	10400	5
1	10402	10405	5
1	10407	10410	5
1	10412	10415	5
1	10417	10420	5
1	10422	10425	5
1	10427	10430	5
1	10432	10435	5
1	10437	10440	5
1	10442	10445	5
1	10447	10450	5
1	10452	10455	5
1	10457	10460	5
1	10462	10465	5
1	10467	10470	5
1	10472	10475	5
1	10477	10480	5
1	10482	10485	5
1	10487	10490	5
1	10492	10495	5
1	10497	10500	5
1	10502	10505	5
1	10507	10510	5
1	10512	10515	5
1	10517	10520	5
1	10522	10525	5
1	10527	10530	5
1	10532	10535	5
1	10537	10540	5
1	10542	10545	5
1	10547	10550	5
1	10552	10555	5
1	10557	10560	5
1	10562	10565	5